
     Program PWSCF v.6.0 (svn rev. 13079) starts on 20Nov2019 at 14:37: 7 

     This program is part of the open-source Quantum ESPRESSO suite
     for quantum simulation of materials; please cite
         "P. Giannozzi et al., J. Phys.:Condens. Matter 21 395502 (2009);
          URL http://www.quantum-espresso.org", 
     in publications or presentations arising from this work. More details at
     http://www.quantum-espresso.org/quote

     Parallel version (MPI), running on     1 processors
     Waiting for input...
     Reading input from standard input

     Current dimensions of program PWSCF are:
     Max number of different atomic species (ntypx) = 10
     Max number of k-points (npk) =  40000
     Max angular momentum in pseudopotentials (lmaxx) =  3
               file O.pbe-n-kjpaw_psl.1.0.0.UPF: wavefunction(s)  2S 2P renormalized

     Subspace diagonalization in iterative solution of the eigenvalue problem:
     a serial algorithm will be used


     G-vector sticks info
     --------------------
     sticks:   dense  smooth     PW     G-vecs:    dense   smooth      PW
     Sum        1281    1281    325                34265    34265    4337



     bravais-lattice index     =            1
     lattice parameter (alat)  =      10.0000  a.u.
     unit-cell volume          =    1000.0000 (a.u.)^3
     number of atoms/cell      =            3
     number of atomic types    =            2
     number of electrons       =         8.00
     number of Kohn-Sham states=            4
     kinetic-energy cutoff     =      40.0000  Ry
     charge density cutoff     =     160.0000  Ry
     convergence threshold     =      1.0E-08
     mixing beta               =       0.7000
     number of iterations used =            8  plain     mixing
     Exchange-correlation      =  SLA  PW   PBX  PBC ( 1  4  3  4 0 0)
     nstep                     =           50


     celldm(1)=  10.000000  celldm(2)=   0.000000  celldm(3)=   0.000000
     celldm(4)=   0.000000  celldm(5)=   0.000000  celldm(6)=   0.000000

     crystal axes: (cart. coord. in units of alat)
               a(1) = (   1.000000   0.000000   0.000000 )  
               a(2) = (   0.000000   1.000000   0.000000 )  
               a(3) = (   0.000000   0.000000   1.000000 )  

     reciprocal axes: (cart. coord. in units 2 pi/alat)
               b(1) = (  1.000000  0.000000  0.000000 )  
               b(2) = (  0.000000  1.000000  0.000000 )  
               b(3) = (  0.000000  0.000000  1.000000 )  


     PseudoPot. # 1 for H  read from file:
     ../pseudos/H_ONCV_PBE_sr.upf
     MD5 check sum: 8975ef619c0c80d0ef0fa21f3286b90d
     Pseudo is Norm-conserving, Zval =  1.0
     Generated using ONCVPSP code by D. R. Hamann
     Using radial grid of 1166 points,  2 beta functions with: 
                l(1) =   0
                l(2) =   0

     PseudoPot. # 2 for  O read from file:
     ../pseudos/O.pbe-n-kjpaw_psl.1.0.0.UPF
     MD5 check sum: e99d9cef9b487d1ca56f5b95ecd0fd7a
     Pseudo is Projector augmented-wave + core cor, Zval =  6.0
     Generated using "atomic" code by A. Dal Corso  v.6.3
     Shape of augmentation charge: PSQ
     Using radial grid of 1095 points,  4 beta functions with: 
                l(1) =   0
                l(2) =   0
                l(3) =   1
                l(4) =   1
     Q(r) pseudized with 0 coefficients 


     atomic species   valence    mass     pseudopotential
        H              1.00     1.00784     H ( 1.00)
        O              6.00    15.99900      O( 1.00)

     No symmetry found



   Cartesian axes

     site n.     atom                  positions (alat units)
         1           O   tau(   1) = (   0.0000000   0.0000000   0.0000000  )
         2           H   tau(   2) = (  -0.1889726   0.0018897   0.0037795  )
         3           H   tau(   3) = (   0.1889726   0.0018897   0.0056692  )

     number of k points=     1
                       cart. coord. in units 2pi/alat
        k(    1) = (   0.0000000   0.0000000   0.0000000), wk =   2.0000000

     Dense  grid:    34265 G-vectors     FFT dimensions: (  45,  45,  45)

     Estimated max dynamical RAM per process >      23.64Mb

     Check: negative/imaginary core charge=   -0.000006    0.000000

     Initial potential from superposition of free atoms
     Check: negative starting charge=   -0.000169

     starting charge    7.99998, renormalised to    8.00000

     negative rho (up, down):  1.685E-04 0.000E+00
     Starting wfc are    6 randomized atomic wfcs
     Checking if some PAW data can be deallocated... 

     total cpu time spent up to now is        0.9 secs

     per-process dynamical memory:    22.4 Mb

     Self-consistent Calculation

     iteration #  1     ecut=    40.00 Ry     beta=0.70
     Davidson diagonalization with overlap
     ethr =  1.00E-02,  avg # of iterations =  2.0

     negative rho (up, down):  1.403E-03 0.000E+00

     total cpu time spent up to now is        1.2 secs

     total energy              =     -43.63043227 Ry
     Harris-Foulkes estimate   =     -44.08277629 Ry
     estimated scf accuracy    <       0.60265965 Ry

     iteration #  2     ecut=    40.00 Ry     beta=0.70
     Davidson diagonalization with overlap
     ethr =  7.53E-03,  avg # of iterations =  3.0

     negative rho (up, down):  8.296E-04 0.000E+00

     total cpu time spent up to now is        1.6 secs

     total energy              =     -43.75556526 Ry
     Harris-Foulkes estimate   =     -44.10580471 Ry
     estimated scf accuracy    <       0.74948174 Ry

     iteration #  3     ecut=    40.00 Ry     beta=0.70
     Davidson diagonalization with overlap
     ethr =  7.53E-03,  avg # of iterations =  2.0

     negative rho (up, down):  7.747E-04 0.000E+00

     total cpu time spent up to now is        1.9 secs

     total energy              =     -43.73675136 Ry
     Harris-Foulkes estimate   =     -43.81171521 Ry
     estimated scf accuracy    <       0.12578865 Ry

     iteration #  4     ecut=    40.00 Ry     beta=0.70
     Davidson diagonalization with overlap
     ethr =  1.57E-03,  avg # of iterations =  4.0

     negative rho (up, down):  1.037E-03 0.000E+00

     total cpu time spent up to now is        2.3 secs

     total energy              =     -43.93178817 Ry
     Harris-Foulkes estimate   =     -43.99854945 Ry
     estimated scf accuracy    <       0.27844238 Ry

     iteration #  5     ecut=    40.00 Ry     beta=0.70
     Davidson diagonalization with overlap
     ethr =  1.57E-03,  avg # of iterations =  1.0

     negative rho (up, down):  1.222E-03 0.000E+00

     total cpu time spent up to now is        2.6 secs

     total energy              =     -43.90269974 Ry
     Harris-Foulkes estimate   =     -43.93530433 Ry
     estimated scf accuracy    <       0.15570258 Ry

     iteration #  6     ecut=    40.00 Ry     beta=0.70
     Davidson diagonalization with overlap
     ethr =  1.57E-03,  avg # of iterations =  2.0

     negative rho (up, down):  1.321E-03 0.000E+00

     total cpu time spent up to now is        2.9 secs

     total energy              =     -43.91781090 Ry
     Harris-Foulkes estimate   =     -43.91965686 Ry
     estimated scf accuracy    <       0.02698235 Ry

     iteration #  7     ecut=    40.00 Ry     beta=0.70
     Davidson diagonalization with overlap
     ethr =  3.37E-04,  avg # of iterations =  1.0

     negative rho (up, down):  1.481E-03 0.000E+00

     total cpu time spent up to now is        3.2 secs

     total energy              =     -43.91367895 Ry
     Harris-Foulkes estimate   =     -43.91836112 Ry
     estimated scf accuracy    <       0.02216255 Ry

     iteration #  8     ecut=    40.00 Ry     beta=0.70
     Davidson diagonalization with overlap
     ethr =  2.77E-04,  avg # of iterations =  1.0

     negative rho (up, down):  1.811E-03 0.000E+00

     total cpu time spent up to now is        3.5 secs

     total energy              =     -43.90992231 Ry
     Harris-Foulkes estimate   =     -43.91432090 Ry
     estimated scf accuracy    <       0.01047865 Ry

     iteration #  9     ecut=    40.00 Ry     beta=0.70
     Davidson diagonalization with overlap
     ethr =  1.31E-04,  avg # of iterations =  3.0

     negative rho (up, down):  1.816E-03 0.000E+00

     total cpu time spent up to now is        3.9 secs

     total energy              =     -43.91264529 Ry
     Harris-Foulkes estimate   =     -43.91257226 Ry
     estimated scf accuracy    <       0.00002724 Ry

     iteration # 10     ecut=    40.00 Ry     beta=0.70
     Davidson diagonalization with overlap
     ethr =  3.41E-07,  avg # of iterations =  4.0

     negative rho (up, down):  1.789E-03 0.000E+00

     total cpu time spent up to now is        4.2 secs

     total energy              =     -43.91270889 Ry
     Harris-Foulkes estimate   =     -43.91277746 Ry
     estimated scf accuracy    <       0.00062237 Ry

     iteration # 11     ecut=    40.00 Ry     beta=0.70
     Davidson diagonalization with overlap
     ethr =  3.41E-07,  avg # of iterations =  3.0

     negative rho (up, down):  1.805E-03 0.000E+00

     total cpu time spent up to now is        4.5 secs

     total energy              =     -43.91272091 Ry
     Harris-Foulkes estimate   =     -43.91271205 Ry
     estimated scf accuracy    <       0.00044597 Ry

     iteration # 12     ecut=    40.00 Ry     beta=0.70
     Davidson diagonalization with overlap
     ethr =  3.41E-07,  avg # of iterations =  1.0

     negative rho (up, down):  1.798E-03 0.000E+00

     total cpu time spent up to now is        4.8 secs

     total energy              =     -43.91261661 Ry
     Harris-Foulkes estimate   =     -43.91272144 Ry
     estimated scf accuracy    <       0.00046497 Ry

     iteration # 13     ecut=    40.00 Ry     beta=0.70
     Davidson diagonalization with overlap
     ethr =  3.41E-07,  avg # of iterations =  3.0

     negative rho (up, down):  1.796E-03 0.000E+00

     total cpu time spent up to now is        5.2 secs

     total energy              =     -43.91262932 Ry
     Harris-Foulkes estimate   =     -43.91263979 Ry
     estimated scf accuracy    <       0.00012303 Ry

     iteration # 14     ecut=    40.00 Ry     beta=0.70
     Davidson diagonalization with overlap
     ethr =  3.41E-07,  avg # of iterations =  1.0

     negative rho (up, down):  1.769E-03 0.000E+00

     total cpu time spent up to now is        5.5 secs

     total energy              =     -43.91256547 Ry
     Harris-Foulkes estimate   =     -43.91262953 Ry
     estimated scf accuracy    <       0.00010186 Ry

     iteration # 15     ecut=    40.00 Ry     beta=0.70
     Davidson diagonalization with overlap
     ethr =  3.41E-07,  avg # of iterations =  4.0

     negative rho (up, down):  1.792E-03 0.000E+00

     total cpu time spent up to now is        5.9 secs

     total energy              =     -43.91259273 Ry
     Harris-Foulkes estimate   =     -43.91261768 Ry
     estimated scf accuracy    <       0.00004198 Ry

     iteration # 16     ecut=    40.00 Ry     beta=0.70
     Davidson diagonalization with overlap
     ethr =  3.41E-07,  avg # of iterations =  3.0

     negative rho (up, down):  1.772E-03 0.000E+00

     total cpu time spent up to now is        6.2 secs

     total energy              =     -43.91260203 Ry
     Harris-Foulkes estimate   =     -43.91260807 Ry
     estimated scf accuracy    <       0.00000787 Ry

     iteration # 17     ecut=    40.00 Ry     beta=0.70
     Davidson diagonalization with overlap
     ethr =  9.83E-08,  avg # of iterations =  3.0

     negative rho (up, down):  1.769E-03 0.000E+00

     total cpu time spent up to now is        6.6 secs

     total energy              =     -43.91261226 Ry
     Harris-Foulkes estimate   =     -43.91260975 Ry
     estimated scf accuracy    <       0.00001393 Ry

     iteration # 18     ecut=    40.00 Ry     beta=0.70
     Davidson diagonalization with overlap
     ethr =  9.83E-08,  avg # of iterations =  1.0

     negative rho (up, down):  1.766E-03 0.000E+00

     total cpu time spent up to now is        6.9 secs

     total energy              =     -43.91261549 Ry
     Harris-Foulkes estimate   =     -43.91261235 Ry
     estimated scf accuracy    <       0.00001924 Ry

     iteration # 19     ecut=    40.00 Ry     beta=0.70
     Davidson diagonalization with overlap
     ethr =  9.83E-08,  avg # of iterations =  2.0

     negative rho (up, down):  1.766E-03 0.000E+00

     total cpu time spent up to now is        7.2 secs

     total energy              =     -43.91261585 Ry
     Harris-Foulkes estimate   =     -43.91261623 Ry
     estimated scf accuracy    <       0.00003658 Ry

     iteration # 20     ecut=    40.00 Ry     beta=0.70
     Davidson diagonalization with overlap
     ethr =  9.83E-08,  avg # of iterations =  1.0

     negative rho (up, down):  1.765E-03 0.000E+00

     total cpu time spent up to now is        7.5 secs

     total energy              =     -43.91261514 Ry
     Harris-Foulkes estimate   =     -43.91261586 Ry
     estimated scf accuracy    <       0.00003542 Ry

     iteration # 21     ecut=    40.00 Ry     beta=0.70
     Davidson diagonalization with overlap
     ethr =  9.83E-08,  avg # of iterations =  1.0

     negative rho (up, down):  1.757E-03 0.000E+00

     total cpu time spent up to now is        7.8 secs

     total energy              =     -43.91262968 Ry
     Harris-Foulkes estimate   =     -43.91261515 Ry
     estimated scf accuracy    <       0.00003434 Ry

     iteration # 22     ecut=    40.00 Ry     beta=0.70
     Davidson diagonalization with overlap
     ethr =  9.83E-08,  avg # of iterations =  3.0

     negative rho (up, down):  1.773E-03 0.000E+00

     total cpu time spent up to now is        8.2 secs

     total energy              =     -43.91261552 Ry
     Harris-Foulkes estimate   =     -43.91263183 Ry
     estimated scf accuracy    <       0.00008490 Ry

     iteration # 23     ecut=    40.00 Ry     beta=0.70
     Davidson diagonalization with overlap
     ethr =  9.83E-08,  avg # of iterations =  2.0

     negative rho (up, down):  1.800E-03 0.000E+00

     total cpu time spent up to now is        8.5 secs

     total energy              =     -43.91258587 Ry
     Harris-Foulkes estimate   =     -43.91261636 Ry
     estimated scf accuracy    <       0.00005235 Ry

     iteration # 24     ecut=    40.00 Ry     beta=0.70
     Davidson diagonalization with overlap
     ethr =  9.83E-08,  avg # of iterations =  4.0

     negative rho (up, down):  1.779E-03 0.000E+00

     total cpu time spent up to now is        8.9 secs

     total energy              =     -43.91260069 Ry
     Harris-Foulkes estimate   =     -43.91260920 Ry
     estimated scf accuracy    <       0.00001174 Ry

     iteration # 25     ecut=    40.00 Ry     beta=0.70
     Davidson diagonalization with overlap
     ethr =  9.83E-08,  avg # of iterations =  3.0

     negative rho (up, down):  1.771E-03 0.000E+00

     total cpu time spent up to now is        9.3 secs

     total energy              =     -43.91260994 Ry
     Harris-Foulkes estimate   =     -43.91260879 Ry
     estimated scf accuracy    <       0.00001052 Ry

     iteration # 26     ecut=    40.00 Ry     beta=0.70
     Davidson diagonalization with overlap
     ethr =  9.83E-08,  avg # of iterations =  1.0

     negative rho (up, down):  1.775E-03 0.000E+00

     total cpu time spent up to now is        9.6 secs

     total energy              =     -43.91260621 Ry
     Harris-Foulkes estimate   =     -43.91260999 Ry
     estimated scf accuracy    <       0.00001383 Ry

     iteration # 27     ecut=    40.00 Ry     beta=0.70
     Davidson diagonalization with overlap
     ethr =  9.83E-08,  avg # of iterations =  1.0

     negative rho (up, down):  1.781E-03 0.000E+00

     total cpu time spent up to now is        9.9 secs

     total energy              =     -43.91260470 Ry
     Harris-Foulkes estimate   =     -43.91260645 Ry
     estimated scf accuracy    <       0.00000701 Ry

     iteration # 28     ecut=    40.00 Ry     beta=0.70
     Davidson diagonalization with overlap
     ethr =  8.76E-08,  avg # of iterations =  2.0

     negative rho (up, down):  1.780E-03 0.000E+00

     total cpu time spent up to now is       10.2 secs

     total energy              =     -43.91260570 Ry
     Harris-Foulkes estimate   =     -43.91260589 Ry
     estimated scf accuracy    <       0.00000044 Ry

     iteration # 29     ecut=    40.00 Ry     beta=0.70
     Davidson diagonalization with overlap
     ethr =  5.55E-09,  avg # of iterations =  2.0

     negative rho (up, down):  1.780E-03 0.000E+00

     total cpu time spent up to now is       10.5 secs

     total energy              =     -43.91260576 Ry
     Harris-Foulkes estimate   =     -43.91260577 Ry
     estimated scf accuracy    <       0.00000006 Ry

     iteration # 30     ecut=    40.00 Ry     beta=0.70
     Davidson diagonalization with overlap
     ethr =  7.18E-10,  avg # of iterations =  3.0

     negative rho (up, down):  1.780E-03 0.000E+00

     total cpu time spent up to now is       10.9 secs

     total energy              =     -43.91260585 Ry
     Harris-Foulkes estimate   =     -43.91260583 Ry
     estimated scf accuracy    <       0.00000002 Ry

     iteration # 31     ecut=    40.00 Ry     beta=0.70
     Davidson diagonalization with overlap
     ethr =  2.26E-10,  avg # of iterations =  3.0

     negative rho (up, down):  1.779E-03 0.000E+00

     total cpu time spent up to now is       11.2 secs

     total energy              =     -43.91260582 Ry
     Harris-Foulkes estimate   =     -43.91260587 Ry
     estimated scf accuracy    <       0.00000016 Ry

     iteration # 32     ecut=    40.00 Ry     beta=0.70
     Davidson diagonalization with overlap
     ethr =  2.26E-10,  avg # of iterations =  3.0

     negative rho (up, down):  1.776E-03 0.000E+00

     total cpu time spent up to now is       11.5 secs

     total energy              =     -43.91260583 Ry
     Harris-Foulkes estimate   =     -43.91260583 Ry
     estimated scf accuracy    <       0.00000003 Ry

     iteration # 33     ecut=    40.00 Ry     beta=0.70
     Davidson diagonalization with overlap
     ethr =  2.26E-10,  avg # of iterations =  4.0

     negative rho (up, down):  1.775E-03 0.000E+00

     total cpu time spent up to now is       11.9 secs

     total energy              =     -43.91260598 Ry
     Harris-Foulkes estimate   =     -43.91260591 Ry
     estimated scf accuracy    <       0.00000030 Ry

     iteration # 34     ecut=    40.00 Ry     beta=0.70
     Davidson diagonalization with overlap
     ethr =  2.26E-10,  avg # of iterations =  3.0

     negative rho (up, down):  1.776E-03 0.000E+00

     total cpu time spent up to now is       12.2 secs

     total energy              =     -43.91260595 Ry
     Harris-Foulkes estimate   =     -43.91260598 Ry
     estimated scf accuracy    <       0.00000051 Ry

     iteration # 35     ecut=    40.00 Ry     beta=0.70
     Davidson diagonalization with overlap
     ethr =  2.26E-10,  avg # of iterations =  1.0

     negative rho (up, down):  1.777E-03 0.000E+00

     total cpu time spent up to now is       12.6 secs

     total energy              =     -43.91260584 Ry
     Harris-Foulkes estimate   =     -43.91260595 Ry
     estimated scf accuracy    <       0.00000046 Ry

     iteration # 36     ecut=    40.00 Ry     beta=0.70
     Davidson diagonalization with overlap
     ethr =  2.26E-10,  avg # of iterations =  3.0

     negative rho (up, down):  1.776E-03 0.000E+00

     total cpu time spent up to now is       12.9 secs

     total energy              =     -43.91260585 Ry
     Harris-Foulkes estimate   =     -43.91260586 Ry
     estimated scf accuracy    <       0.00000013 Ry

     iteration # 37     ecut=    40.00 Ry     beta=0.70
     Davidson diagonalization with overlap
     ethr =  2.26E-10,  avg # of iterations =  1.0

     negative rho (up, down):  1.776E-03 0.000E+00

     total cpu time spent up to now is       13.2 secs

     total energy              =     -43.91260584 Ry
     Harris-Foulkes estimate   =     -43.91260585 Ry
     estimated scf accuracy    <       0.00000011 Ry

     iteration # 38     ecut=    40.00 Ry     beta=0.70
     Davidson diagonalization with overlap
     ethr =  2.26E-10,  avg # of iterations =  2.0

     negative rho (up, down):  1.778E-03 0.000E+00

     total cpu time spent up to now is       13.6 secs

     total energy              =     -43.91260580 Ry
     Harris-Foulkes estimate   =     -43.91260584 Ry
     estimated scf accuracy    <       0.00000006 Ry

     iteration # 39     ecut=    40.00 Ry     beta=0.70
     Davidson diagonalization with overlap
     ethr =  2.26E-10,  avg # of iterations =  3.0

     negative rho (up, down):  1.778E-03 0.000E+00

     total cpu time spent up to now is       13.9 secs

     total energy              =     -43.91260583 Ry
     Harris-Foulkes estimate   =     -43.91260584 Ry
     estimated scf accuracy    <       0.00000005 Ry

     iteration # 40     ecut=    40.00 Ry     beta=0.70
     Davidson diagonalization with overlap
     ethr =  2.26E-10,  avg # of iterations =  1.0

     negative rho (up, down):  1.777E-03 0.000E+00

     total cpu time spent up to now is       14.2 secs

     total energy              =     -43.91260582 Ry
     Harris-Foulkes estimate   =     -43.91260583 Ry
     estimated scf accuracy    <       0.00000002 Ry

     iteration # 41     ecut=    40.00 Ry     beta=0.70
     Davidson diagonalization with overlap
     ethr =  2.26E-10,  avg # of iterations =  3.0

     negative rho (up, down):  1.777E-03 0.000E+00

     total cpu time spent up to now is       14.6 secs

     End of self-consistent calculation

          k = 0.0000 0.0000 0.0000 (  4337 PWs)   bands (ev):

   -23.1611 -13.5638  -5.8647  -5.8602

     highest occupied level (ev):    -5.8602

!    total energy              =     -43.91260583 Ry
     Harris-Foulkes estimate   =     -43.91260583 Ry
     estimated scf accuracy    <          1.6E-09 Ry

     The total energy is the sum of the following terms:

     one-electron contribution =     -45.90451982 Ry
     hartree contribution      =      25.02971203 Ry
     xc contribution           =      -8.79421358 Ry
     ewald contribution        =      -4.67169623 Ry
     one-center paw contrib.   =      -9.57188822 Ry

     convergence has been achieved in  41 iterations

     negative rho (up, down):  1.777E-03 0.000E+00

     Forces acting on atoms (Ry/au):

     atom    1 type  2   force =     0.00046606   -0.00438287   -0.01095292
     atom    2 type  1   force =     0.11204382    0.00219383    0.00598446
     atom    3 type  1   force =    -0.11250988    0.00218904    0.00496845

     Total force =     0.159442     Total SCF correction =     0.000017

     BFGS Geometry Optimization

     number of scf cycles    =   1
     number of bfgs steps    =   0

     energy   new            =     -43.9126058265 Ry

     new trust radius        =       0.1126408034 bohr
     new conv_thr            =       0.0000000100 Ry


ATOMIC_POSITIONS (angstrom)
O        0.000246629  -0.002319317  -0.005796034
H       -0.940708965   0.011160927   0.023166842
H        0.940462336   0.011158391   0.032629192



     Writing output data file h2o.save
     Check: negative starting charge=   -0.000169
     NEW-OLD atomic charge density approx. for the potential

     Check: negative/imaginary core charge=   -0.000006    0.000000
     Check: negative starting charge=   -0.000176

     negative rho (up, down):  4.753E-03 0.000E+00

     total cpu time spent up to now is       15.2 secs

     per-process dynamical memory:    48.0 Mb

     Self-consistent Calculation

     iteration #  1     ecut=    40.00 Ry     beta=0.70
     Davidson diagonalization with overlap
     ethr =  1.00E-06,  avg # of iterations =  5.0

     negative rho (up, down):  2.230E-03 0.000E+00

     total cpu time spent up to now is       15.6 secs

     total energy              =     -43.92473967 Ry
     Harris-Foulkes estimate   =     -43.92771417 Ry
     estimated scf accuracy    <       0.00479904 Ry

     iteration #  2     ecut=    40.00 Ry     beta=0.70
     Davidson diagonalization with overlap
     ethr =  6.00E-05,  avg # of iterations =  3.0

     negative rho (up, down):  1.937E-03 0.000E+00

     total cpu time spent up to now is       16.0 secs

     total energy              =     -43.92552261 Ry
     Harris-Foulkes estimate   =     -43.92729204 Ry
     estimated scf accuracy    <       0.00340147 Ry

     iteration #  3     ecut=    40.00 Ry     beta=0.70
     Davidson diagonalization with overlap
     ethr =  4.25E-05,  avg # of iterations =  2.0

     negative rho (up, down):  1.779E-03 0.000E+00

     total cpu time spent up to now is       16.3 secs

     total energy              =     -43.92561745 Ry
     Harris-Foulkes estimate   =     -43.92585331 Ry
     estimated scf accuracy    <       0.00037008 Ry

     iteration #  4     ecut=    40.00 Ry     beta=0.70
     Davidson diagonalization with overlap
     ethr =  4.63E-06,  avg # of iterations =  4.0

     negative rho (up, down):  1.824E-03 0.000E+00

     total cpu time spent up to now is       16.6 secs

     total energy              =     -43.92628721 Ry
     Harris-Foulkes estimate   =     -43.92680936 Ry
     estimated scf accuracy    <       0.00159444 Ry

     iteration #  5     ecut=    40.00 Ry     beta=0.70
     Davidson diagonalization with overlap
     ethr =  4.63E-06,  avg # of iterations =  3.0

     negative rho (up, down):  1.826E-03 0.000E+00

     total cpu time spent up to now is       17.0 secs

     total energy              =     -43.92636770 Ry
     Harris-Foulkes estimate   =     -43.92638565 Ry
     estimated scf accuracy    <       0.00031608 Ry

     iteration #  6     ecut=    40.00 Ry     beta=0.70
     Davidson diagonalization with overlap
     ethr =  3.95E-06,  avg # of iterations =  1.0

     negative rho (up, down):  1.813E-03 0.000E+00

     total cpu time spent up to now is       17.3 secs

     total energy              =     -43.92625981 Ry
     Harris-Foulkes estimate   =     -43.92637406 Ry
     estimated scf accuracy    <       0.00027885 Ry

     iteration #  7     ecut=    40.00 Ry     beta=0.70
     Davidson diagonalization with overlap
     ethr =  3.49E-06,  avg # of iterations =  3.0

     negative rho (up, down):  1.833E-03 0.000E+00

     total cpu time spent up to now is       17.6 secs

     total energy              =     -43.92631787 Ry
     Harris-Foulkes estimate   =     -43.92632642 Ry
     estimated scf accuracy    <       0.00001622 Ry

     iteration #  8     ecut=    40.00 Ry     beta=0.70
     Davidson diagonalization with overlap
     ethr =  2.03E-07,  avg # of iterations =  3.0

     negative rho (up, down):  1.837E-03 0.000E+00

     total cpu time spent up to now is       17.9 secs

     total energy              =     -43.92634334 Ry
     Harris-Foulkes estimate   =     -43.92635907 Ry
     estimated scf accuracy    <       0.00005125 Ry

     iteration #  9     ecut=    40.00 Ry     beta=0.70
     Davidson diagonalization with overlap
     ethr =  2.03E-07,  avg # of iterations =  2.0

     negative rho (up, down):  1.847E-03 0.000E+00

     total cpu time spent up to now is       18.3 secs

     total energy              =     -43.92633372 Ry
     Harris-Foulkes estimate   =     -43.92634483 Ry
     estimated scf accuracy    <       0.00002031 Ry

     iteration # 10     ecut=    40.00 Ry     beta=0.70
     Davidson diagonalization with overlap
     ethr =  2.03E-07,  avg # of iterations =  3.0

     negative rho (up, down):  1.851E-03 0.000E+00

     total cpu time spent up to now is       18.6 secs

     total energy              =     -43.92634721 Ry
     Harris-Foulkes estimate   =     -43.92634666 Ry
     estimated scf accuracy    <       0.00000764 Ry

     iteration # 11     ecut=    40.00 Ry     beta=0.70
     Davidson diagonalization with overlap
     ethr =  9.56E-08,  avg # of iterations =  1.0

     negative rho (up, down):  1.853E-03 0.000E+00

     total cpu time spent up to now is       18.9 secs

     total energy              =     -43.92634562 Ry
     Harris-Foulkes estimate   =     -43.92634725 Ry
     estimated scf accuracy    <       0.00000878 Ry

     iteration # 12     ecut=    40.00 Ry     beta=0.70
     Davidson diagonalization with overlap
     ethr =  9.56E-08,  avg # of iterations =  1.0

     negative rho (up, down):  1.855E-03 0.000E+00

     total cpu time spent up to now is       19.2 secs

     total energy              =     -43.92634375 Ry
     Harris-Foulkes estimate   =     -43.92634570 Ry
     estimated scf accuracy    <       0.00000590 Ry

     iteration # 13     ecut=    40.00 Ry     beta=0.70
     Davidson diagonalization with overlap
     ethr =  7.38E-08,  avg # of iterations =  1.0

     negative rho (up, down):  1.868E-03 0.000E+00

     total cpu time spent up to now is       19.5 secs

     total energy              =     -43.92634337 Ry
     Harris-Foulkes estimate   =     -43.92634415 Ry
     estimated scf accuracy    <       0.00000140 Ry

     iteration # 14     ecut=    40.00 Ry     beta=0.70
     Davidson diagonalization with overlap
     ethr =  1.75E-08,  avg # of iterations =  3.0

     negative rho (up, down):  1.860E-03 0.000E+00

     total cpu time spent up to now is       19.9 secs

     total energy              =     -43.92634705 Ry
     Harris-Foulkes estimate   =     -43.92634492 Ry
     estimated scf accuracy    <       0.00000146 Ry

     iteration # 15     ecut=    40.00 Ry     beta=0.70
     Davidson diagonalization with overlap
     ethr =  1.75E-08,  avg # of iterations =  3.0

     negative rho (up, down):  1.864E-03 0.000E+00

     total cpu time spent up to now is       20.3 secs

     total energy              =     -43.92635191 Ry
     Harris-Foulkes estimate   =     -43.92634813 Ry
     estimated scf accuracy    <       0.00001254 Ry

     iteration # 16     ecut=    40.00 Ry     beta=0.70
     Davidson diagonalization with overlap
     ethr =  1.75E-08,  avg # of iterations =  3.0

     negative rho (up, down):  1.859E-03 0.000E+00

     total cpu time spent up to now is       20.6 secs

     total energy              =     -43.92634769 Ry
     Harris-Foulkes estimate   =     -43.92635236 Ry
     estimated scf accuracy    <       0.00002540 Ry

     iteration # 17     ecut=    40.00 Ry     beta=0.70
     Davidson diagonalization with overlap
     ethr =  1.75E-08,  avg # of iterations =  3.0

     negative rho (up, down):  1.859E-03 0.000E+00

     total cpu time spent up to now is       20.9 secs

     total energy              =     -43.92634824 Ry
     Harris-Foulkes estimate   =     -43.92634812 Ry
     estimated scf accuracy    <       0.00001281 Ry

     iteration # 18     ecut=    40.00 Ry     beta=0.70
     Davidson diagonalization with overlap
     ethr =  1.75E-08,  avg # of iterations =  1.0

     negative rho (up, down):  1.856E-03 0.000E+00

     total cpu time spent up to now is       21.2 secs

     total energy              =     -43.92634346 Ry
     Harris-Foulkes estimate   =     -43.92634825 Ry
     estimated scf accuracy    <       0.00001297 Ry

     iteration # 19     ecut=    40.00 Ry     beta=0.70
     Davidson diagonalization with overlap
     ethr =  1.75E-08,  avg # of iterations =  3.0

     negative rho (up, down):  1.856E-03 0.000E+00

     total cpu time spent up to now is       21.6 secs

     total energy              =     -43.92634482 Ry
     Harris-Foulkes estimate   =     -43.92634475 Ry
     estimated scf accuracy    <       0.00000094 Ry

     iteration # 20     ecut=    40.00 Ry     beta=0.70
     Davidson diagonalization with overlap
     ethr =  1.17E-08,  avg # of iterations =  1.0

     negative rho (up, down):  1.857E-03 0.000E+00

     total cpu time spent up to now is       21.9 secs

     total energy              =     -43.92634447 Ry
     Harris-Foulkes estimate   =     -43.92634482 Ry
     estimated scf accuracy    <       0.00000109 Ry

     iteration # 21     ecut=    40.00 Ry     beta=0.70
     Davidson diagonalization with overlap
     ethr =  1.17E-08,  avg # of iterations =  1.0

     negative rho (up, down):  1.856E-03 0.000E+00

     total cpu time spent up to now is       22.2 secs

     total energy              =     -43.92634441 Ry
     Harris-Foulkes estimate   =     -43.92634450 Ry
     estimated scf accuracy    <       0.00000047 Ry

     iteration # 22     ecut=    40.00 Ry     beta=0.70
     Davidson diagonalization with overlap
     ethr =  5.85E-09,  avg # of iterations =  3.0

     negative rho (up, down):  1.857E-03 0.000E+00

     total cpu time spent up to now is       22.5 secs

     total energy              =     -43.92634447 Ry
     Harris-Foulkes estimate   =     -43.92634449 Ry
     estimated scf accuracy    <       0.00000006 Ry

     iteration # 23     ecut=    40.00 Ry     beta=0.70
     Davidson diagonalization with overlap
     ethr =  6.96E-10,  avg # of iterations =  3.0

     negative rho (up, down):  1.856E-03 0.000E+00

     total cpu time spent up to now is       22.9 secs

     End of self-consistent calculation

          k = 0.0000 0.0000 0.0000 (  4337 PWs)   bands (ev):

   -23.7884 -14.3012  -6.0860  -6.0774

     highest occupied level (ev):    -6.0774

!    total energy              =     -43.92634448 Ry
     Harris-Foulkes estimate   =     -43.92634448 Ry
     estimated scf accuracy    <          5.8E-09 Ry

     The total energy is the sum of the following terms:

     one-electron contribution =     -47.18618654 Ry
     hartree contribution      =      25.60613434 Ry
     xc contribution           =      -8.89961214 Ry
     ewald contribution        =      -3.87404333 Ry
     one-center paw contrib.   =      -9.57263680 Ry

     convergence has been achieved in  23 iterations

     negative rho (up, down):  1.856E-03 0.000E+00

     Forces acting on atoms (Ry/au):

     atom    1 type  2   force =    -0.00087096   -0.00883921   -0.02209732
     atom    2 type  1   force =     0.00044215    0.00441178    0.01097622
     atom    3 type  1   force =     0.00042881    0.00442743    0.01112110

     Total force =     0.029168     Total SCF correction =     0.000117

     number of scf cycles    =   2
     number of bfgs steps    =   1

     energy   old            =     -43.9126058265 Ry
     energy   new            =     -43.9263444768 Ry

     CASE: energy  _new < energy  _old

     new trust radius        =       0.0246216164 bohr
     new conv_thr            =       0.0000000100 Ry


ATOMIC_POSITIONS (angstrom)
O       -0.000213579  -0.007155378  -0.017885730
H       -0.938436104   0.013574790   0.029181936
H        0.938649683   0.013580588   0.038703794



     Writing output data file h2o.save
     Check: negative starting charge=   -0.000176
     NEW-OLD atomic charge density approx. for the potential

     Check: negative/imaginary core charge=   -0.000006    0.000000
     Check: negative starting charge=   -0.000174

     negative rho (up, down):  1.875E-03 0.000E+00

     total cpu time spent up to now is       23.5 secs

     per-process dynamical memory:    60.2 Mb

     Self-consistent Calculation

     iteration #  1     ecut=    40.00 Ry     beta=0.70
     Davidson diagonalization with overlap
     ethr =  1.00E-06,  avg # of iterations =  5.0

     negative rho (up, down):  1.874E-03 0.000E+00

     total cpu time spent up to now is       23.9 secs

     total energy              =     -43.92740980 Ry
     Harris-Foulkes estimate   =     -43.92790642 Ry
     estimated scf accuracy    <       0.00021953 Ry

     iteration #  2     ecut=    40.00 Ry     beta=0.70
     Davidson diagonalization with overlap
     ethr =  2.74E-06,  avg # of iterations =  2.0

     negative rho (up, down):  1.881E-03 0.000E+00

     total cpu time spent up to now is       24.2 secs

     total energy              =     -43.92744680 Ry
     Harris-Foulkes estimate   =     -43.92744642 Ry
     estimated scf accuracy    <       0.00000301 Ry

     iteration #  3     ecut=    40.00 Ry     beta=0.70
     Davidson diagonalization with overlap
     ethr =  3.76E-08,  avg # of iterations =  5.0

     negative rho (up, down):  1.882E-03 0.000E+00

     total cpu time spent up to now is       24.6 secs

     total energy              =     -43.92744934 Ry
     Harris-Foulkes estimate   =     -43.92744950 Ry
     estimated scf accuracy    <       0.00000079 Ry

     iteration #  4     ecut=    40.00 Ry     beta=0.70
     Davidson diagonalization with overlap
     ethr =  9.83E-09,  avg # of iterations =  2.0

     negative rho (up, down):  1.882E-03 0.000E+00

     total cpu time spent up to now is       24.9 secs

     total energy              =     -43.92744942 Ry
     Harris-Foulkes estimate   =     -43.92744943 Ry
     estimated scf accuracy    <       0.00000005 Ry

     iteration #  5     ecut=    40.00 Ry     beta=0.70
     Davidson diagonalization with overlap
     ethr =  6.29E-10,  avg # of iterations =  3.0

     negative rho (up, down):  1.882E-03 0.000E+00

     total cpu time spent up to now is       25.2 secs

     total energy              =     -43.92744945 Ry
     Harris-Foulkes estimate   =     -43.92744946 Ry
     estimated scf accuracy    <       0.00000002 Ry

     iteration #  6     ecut=    40.00 Ry     beta=0.70
     Davidson diagonalization with overlap
     ethr =  2.41E-10,  avg # of iterations =  3.0

     negative rho (up, down):  1.882E-03 0.000E+00

     total cpu time spent up to now is       25.5 secs

     End of self-consistent calculation

          k = 0.0000 0.0000 0.0000 (  4337 PWs)   bands (ev):

   -23.8072 -14.3072  -6.1041  -6.0835

     highest occupied level (ev):    -6.0835

!    total energy              =     -43.92744946 Ry
     Harris-Foulkes estimate   =     -43.92744946 Ry
     estimated scf accuracy    <          1.6E-09 Ry

     The total energy is the sum of the following terms:

     one-electron contribution =     -47.21103470 Ry
     hartree contribution      =      25.61626880 Ry
     xc contribution           =      -8.90183261 Ry
     ewald contribution        =      -3.85805756 Ry
     one-center paw contrib.   =      -9.57279338 Ry

     convergence has been achieved in   6 iterations

     negative rho (up, down):  1.882E-03 0.000E+00

     Forces acting on atoms (Ry/au):

     atom    1 type  2   force =     0.00302027   -0.01362300   -0.03407057
     atom    2 type  1   force =    -0.00399966    0.00684744    0.01705935
     atom    3 type  1   force =     0.00097939    0.00677556    0.01701122

     Total force =     0.045229     Total SCF correction =     0.000164

     number of scf cycles    =   3
     number of bfgs steps    =   2

     energy   old            =     -43.9263444768 Ry
     energy   new            =     -43.9274494554 Ry

     CASE: energy  _new < energy  _old


     WARNING: bfgs curvature condition failed, Theta= 0.529
     uphill step: resetting bfgs history

     new trust radius        =       0.0270837781 bohr
     new conv_thr            =       0.0000000100 Ry


ATOMIC_POSITIONS (angstrom)
O        0.000962142  -0.012458498  -0.031148618
H       -0.939993081   0.016240341   0.035822749
H        0.939030939   0.016218156   0.045325869



     Writing output data file h2o.save
     Check: negative starting charge=   -0.000174
     NEW-OLD atomic charge density approx. for the potential

     Check: negative/imaginary core charge=   -0.000006    0.000000
     Check: negative starting charge=   -0.000170

     negative rho (up, down):  1.897E-03 0.000E+00

     total cpu time spent up to now is       26.2 secs

     per-process dynamical memory:    60.2 Mb

     Self-consistent Calculation

     iteration #  1     ecut=    40.00 Ry     beta=0.70
     Davidson diagonalization with overlap
     ethr =  1.00E-06,  avg # of iterations =  5.0

     negative rho (up, down):  1.887E-03 0.000E+00

     total cpu time spent up to now is       26.6 secs

     total energy              =     -43.92912752 Ry
     Harris-Foulkes estimate   =     -43.92968004 Ry
     estimated scf accuracy    <       0.00028920 Ry

     iteration #  2     ecut=    40.00 Ry     beta=0.70
     Davidson diagonalization with overlap
     ethr =  3.61E-06,  avg # of iterations =  3.0

     negative rho (up, down):  1.905E-03 0.000E+00

     total cpu time spent up to now is       26.9 secs

     total energy              =     -43.92917087 Ry
     Harris-Foulkes estimate   =     -43.92917908 Ry
     estimated scf accuracy    <       0.00001544 Ry

     iteration #  3     ecut=    40.00 Ry     beta=0.70
     Davidson diagonalization with overlap
     ethr =  1.93E-07,  avg # of iterations =  3.0

     negative rho (up, down):  1.904E-03 0.000E+00

     total cpu time spent up to now is       27.2 secs

     total energy              =     -43.92918723 Ry
     Harris-Foulkes estimate   =     -43.92918945 Ry
     estimated scf accuracy    <       0.00000465 Ry

     iteration #  4     ecut=    40.00 Ry     beta=0.70
     Davidson diagonalization with overlap
     ethr =  5.82E-08,  avg # of iterations =  2.0

     negative rho (up, down):  1.906E-03 0.000E+00

     total cpu time spent up to now is       27.5 secs

     total energy              =     -43.92918755 Ry
     Harris-Foulkes estimate   =     -43.92918776 Ry
     estimated scf accuracy    <       0.00000054 Ry

     iteration #  5     ecut=    40.00 Ry     beta=0.70
     Davidson diagonalization with overlap
     ethr =  6.77E-09,  avg # of iterations =  3.0

     negative rho (up, down):  1.907E-03 0.000E+00

     total cpu time spent up to now is       27.8 secs

     total energy              =     -43.92918794 Ry
     Harris-Foulkes estimate   =     -43.92918813 Ry
     estimated scf accuracy    <       0.00000041 Ry

     iteration #  6     ecut=    40.00 Ry     beta=0.70
     Davidson diagonalization with overlap
     ethr =  5.13E-09,  avg # of iterations =  2.0

     negative rho (up, down):  1.907E-03 0.000E+00

     total cpu time spent up to now is       28.2 secs

     total energy              =     -43.92918794 Ry
     Harris-Foulkes estimate   =     -43.92918797 Ry
     estimated scf accuracy    <       0.00000007 Ry

     iteration #  7     ecut=    40.00 Ry     beta=0.70
     Davidson diagonalization with overlap
     ethr =  8.15E-10,  avg # of iterations =  3.0

     negative rho (up, down):  1.907E-03 0.000E+00

     total cpu time spent up to now is       28.5 secs

     End of self-consistent calculation

          k = 0.0000 0.0000 0.0000 (  4337 PWs)   bands (ev):

   -23.7912 -14.2624  -6.1178  -6.0785

     highest occupied level (ev):    -6.0785

!    total energy              =     -43.92918798 Ry
     Harris-Foulkes estimate   =     -43.92918798 Ry
     estimated scf accuracy    <          4.2E-09 Ry

     The total energy is the sum of the following terms:

     one-electron contribution =     -47.15454231 Ry
     hartree contribution      =      25.58890804 Ry
     xc contribution           =      -8.89734817 Ry
     ewald contribution        =      -3.89323336 Ry
     one-center paw contrib.   =      -9.57297217 Ry

     convergence has been achieved in   7 iterations

     negative rho (up, down):  1.907E-03 0.000E+00

     Forces acting on atoms (Ry/au):

     atom    1 type  2   force =    -0.00496702   -0.01826588   -0.04567385
     atom    2 type  1   force =     0.00566543    0.00904204    0.02257670
     atom    3 type  1   force =    -0.00069841    0.00922383    0.02309715

     Total force =     0.060721     Total SCF correction =     0.000157

     number of scf cycles    =   4
     number of bfgs steps    =   3

     energy   old            =     -43.9274494554 Ry
     energy   new            =     -43.9291879754 Ry

     CASE: energy  _new < energy  _old


     WARNING: bfgs curvature condition failed, Theta= 0.566
     uphill step: resetting bfgs history

     new trust radius        =       0.0406256671 bohr
     new conv_thr            =       0.0000000100 Ry


ATOMIC_POSITIONS (angstrom)
O       -0.001197641  -0.020400952  -0.051008738
H       -0.937529612   0.020172044   0.045639657
H        0.938727253   0.020228908   0.055369081



     Writing output data file h2o.save
     Check: negative starting charge=   -0.000170
     NEW-OLD atomic charge density approx. for the potential

     Check: negative/imaginary core charge=   -0.000006    0.000000
     Check: negative starting charge=   -0.000167

     negative rho (up, down):  1.946E-03 0.000E+00

     total cpu time spent up to now is       29.1 secs

     per-process dynamical memory:    60.2 Mb

     Self-consistent Calculation

     iteration #  1     ecut=    40.00 Ry     beta=0.70
     Davidson diagonalization with overlap
     ethr =  1.00E-06,  avg # of iterations =  6.0

     negative rho (up, down):  1.919E-03 0.000E+00

     total cpu time spent up to now is       29.6 secs

     total energy              =     -43.93259397 Ry
     Harris-Foulkes estimate   =     -43.93385720 Ry
     estimated scf accuracy    <       0.00061764 Ry

     iteration #  2     ecut=    40.00 Ry     beta=0.70
     Davidson diagonalization with overlap
     ethr =  7.72E-06,  avg # of iterations =  2.0

     negative rho (up, down):  1.943E-03 0.000E+00

     total cpu time spent up to now is       29.9 secs

     total energy              =     -43.93267982 Ry
     Harris-Foulkes estimate   =     -43.93269741 Ry
     estimated scf accuracy    <       0.00003292 Ry

     iteration #  3     ecut=    40.00 Ry     beta=0.70
     Davidson diagonalization with overlap
     ethr =  4.12E-07,  avg # of iterations =  4.0

     negative rho (up, down):  1.937E-03 0.000E+00

     total cpu time spent up to now is       30.3 secs

     total energy              =     -43.93271961 Ry
     Harris-Foulkes estimate   =     -43.93272785 Ry
     estimated scf accuracy    <       0.00001726 Ry

     iteration #  4     ecut=    40.00 Ry     beta=0.70
     Davidson diagonalization with overlap
     ethr =  2.16E-07,  avg # of iterations =  2.0

     negative rho (up, down):  1.938E-03 0.000E+00

     total cpu time spent up to now is       30.6 secs

     total energy              =     -43.93272062 Ry
     Harris-Foulkes estimate   =     -43.93272153 Ry
     estimated scf accuracy    <       0.00000193 Ry

     iteration #  5     ecut=    40.00 Ry     beta=0.70
     Davidson diagonalization with overlap
     ethr =  2.41E-08,  avg # of iterations =  3.0

     negative rho (up, down):  1.940E-03 0.000E+00

     total cpu time spent up to now is       30.9 secs

     total energy              =     -43.93272212 Ry
     Harris-Foulkes estimate   =     -43.93272309 Ry
     estimated scf accuracy    <       0.00000254 Ry

     iteration #  6     ecut=    40.00 Ry     beta=0.70
     Davidson diagonalization with overlap
     ethr =  2.41E-08,  avg # of iterations =  2.0

     negative rho (up, down):  1.942E-03 0.000E+00

     total cpu time spent up to now is       31.2 secs

     total energy              =     -43.93272186 Ry
     Harris-Foulkes estimate   =     -43.93272226 Ry
     estimated scf accuracy    <       0.00000071 Ry

     iteration #  7     ecut=    40.00 Ry     beta=0.70
     Davidson diagonalization with overlap
     ethr =  8.84E-09,  avg # of iterations =  3.0

     negative rho (up, down):  1.941E-03 0.000E+00

     total cpu time spent up to now is       31.6 secs

     total energy              =     -43.93272219 Ry
     Harris-Foulkes estimate   =     -43.93272223 Ry
     estimated scf accuracy    <       0.00000011 Ry

     iteration #  8     ecut=    40.00 Ry     beta=0.70
     Davidson diagonalization with overlap
     ethr =  1.33E-09,  avg # of iterations =  2.0

     negative rho (up, down):  1.941E-03 0.000E+00

     total cpu time spent up to now is       31.9 secs

     total energy              =     -43.93272218 Ry
     Harris-Foulkes estimate   =     -43.93272220 Ry
     estimated scf accuracy    <       0.00000002 Ry

     iteration #  9     ecut=    40.00 Ry     beta=0.70
     Davidson diagonalization with overlap
     ethr =  3.11E-10,  avg # of iterations =  3.0

     negative rho (up, down):  1.941E-03 0.000E+00

     total cpu time spent up to now is       32.2 secs

     total energy              =     -43.93272220 Ry
     Harris-Foulkes estimate   =     -43.93272220 Ry
     estimated scf accuracy    <       0.00000002 Ry

     iteration # 10     ecut=    40.00 Ry     beta=0.70
     Davidson diagonalization with overlap
     ethr =  2.04E-10,  avg # of iterations =  1.0

     negative rho (up, down):  1.942E-03 0.000E+00

     total cpu time spent up to now is       32.5 secs

     End of self-consistent calculation

          k = 0.0000 0.0000 0.0000 (  4337 PWs)   bands (ev):

   -23.7956 -14.2136  -6.1593  -6.0813

     highest occupied level (ev):    -6.0813

!    total energy              =     -43.93272219 Ry
     Harris-Foulkes estimate   =     -43.93272220 Ry
     estimated scf accuracy    <          5.0E-09 Ry

     The total energy is the sum of the following terms:

     one-electron contribution =     -47.11495372 Ry
     hartree contribution      =      25.56802167 Ry
     xc contribution           =      -8.89464205 Ry
     ewald contribution        =      -3.91774174 Ry
     one-center paw contrib.   =      -9.57340635 Ry

     convergence has been achieved in  10 iterations

     negative rho (up, down):  1.942E-03 0.000E+00

     Forces acting on atoms (Ry/au):

     atom    1 type  2   force =     0.01122879   -0.02486984   -0.06197347
     atom    2 type  1   force =     0.00156776    0.01270196    0.03163993
     atom    3 type  1   force =    -0.01279655    0.01216788    0.03033353

     Total force =     0.083559     Total SCF correction =     0.000054

     number of scf cycles    =   5
     number of bfgs steps    =   4

     energy   old            =     -43.9291879754 Ry
     energy   new            =     -43.9327221949 Ry

     CASE: energy  _new < energy  _old


     WARNING: bfgs curvature condition failed, Theta= 0.573
     uphill step: resetting bfgs history

     new trust radius        =       0.0609385007 bohr
     new conv_thr            =       0.0000000100 Ry


ATOMIC_POSITIONS (angstrom)
O        0.004149748  -0.032244499  -0.080521820
H       -0.936783013   0.026220988   0.060707265
H        0.932633265   0.026023511   0.069814554



     Writing output data file h2o.save
     Check: negative starting charge=   -0.000167
     NEW-OLD atomic charge density approx. for the potential

     Check: negative/imaginary core charge=   -0.000006    0.000000
     Check: negative starting charge=   -0.000167

     negative rho (up, down):  1.997E-03 0.000E+00

     total cpu time spent up to now is       33.2 secs

     per-process dynamical memory:    60.2 Mb

     Self-consistent Calculation

     iteration #  1     ecut=    40.00 Ry     beta=0.70
     Davidson diagonalization with overlap
     ethr =  1.00E-06,  avg # of iterations =  8.0

     negative rho (up, down):  1.901E-03 0.000E+00

     total cpu time spent up to now is       33.6 secs

     total energy              =     -43.93948897 Ry
     Harris-Foulkes estimate   =     -43.94241129 Ry
     estimated scf accuracy    <       0.00140152 Ry

     iteration #  2     ecut=    40.00 Ry     beta=0.70
     Davidson diagonalization with overlap
     ethr =  1.75E-05,  avg # of iterations =  3.0

     negative rho (up, down):  1.936E-03 0.000E+00

     total cpu time spent up to now is       33.9 secs

     total energy              =     -43.93972993 Ry
     Harris-Foulkes estimate   =     -43.93979954 Ry
     estimated scf accuracy    <       0.00012176 Ry

     iteration #  3     ecut=    40.00 Ry     beta=0.70
     Davidson diagonalization with overlap
     ethr =  1.52E-06,  avg # of iterations =  3.0

     negative rho (up, down):  1.930E-03 0.000E+00

     total cpu time spent up to now is       34.3 secs

     total energy              =     -43.93980188 Ry
     Harris-Foulkes estimate   =     -43.93981423 Ry
     estimated scf accuracy    <       0.00002521 Ry

     iteration #  4     ecut=    40.00 Ry     beta=0.70
     Davidson diagonalization with overlap
     ethr =  3.15E-07,  avg # of iterations =  3.0

     negative rho (up, down):  1.931E-03 0.000E+00

     total cpu time spent up to now is       34.6 secs

     total energy              =     -43.93980558 Ry
     Harris-Foulkes estimate   =     -43.93980572 Ry
     estimated scf accuracy    <       0.00000121 Ry

     iteration #  5     ecut=    40.00 Ry     beta=0.70
     Davidson diagonalization with overlap
     ethr =  1.52E-08,  avg # of iterations =  4.0

     negative rho (up, down):  1.933E-03 0.000E+00

     total cpu time spent up to now is       34.9 secs

     total energy              =     -43.93980788 Ry
     Harris-Foulkes estimate   =     -43.93980894 Ry
     estimated scf accuracy    <       0.00000373 Ry

     iteration #  6     ecut=    40.00 Ry     beta=0.70
     Davidson diagonalization with overlap
     ethr =  1.52E-08,  avg # of iterations =  1.0

     negative rho (up, down):  1.935E-03 0.000E+00

     total cpu time spent up to now is       35.2 secs

     total energy              =     -43.93980693 Ry
     Harris-Foulkes estimate   =     -43.93980795 Ry
     estimated scf accuracy    <       0.00000173 Ry

     iteration #  7     ecut=    40.00 Ry     beta=0.70
     Davidson diagonalization with overlap
     ethr =  1.52E-08,  avg # of iterations =  3.0

     negative rho (up, down):  1.934E-03 0.000E+00

     total cpu time spent up to now is       35.5 secs

     total energy              =     -43.93980778 Ry
     Harris-Foulkes estimate   =     -43.93980805 Ry
     estimated scf accuracy    <       0.00000080 Ry

     iteration #  8     ecut=    40.00 Ry     beta=0.70
     Davidson diagonalization with overlap
     ethr =  9.97E-09,  avg # of iterations =  1.0

     negative rho (up, down):  1.934E-03 0.000E+00

     total cpu time spent up to now is       35.8 secs

     total energy              =     -43.93980778 Ry
     Harris-Foulkes estimate   =     -43.93980781 Ry
     estimated scf accuracy    <       0.00000030 Ry

     iteration #  9     ecut=    40.00 Ry     beta=0.70
     Davidson diagonalization with overlap
     ethr =  3.70E-09,  avg # of iterations =  1.0

     negative rho (up, down):  1.933E-03 0.000E+00

     total cpu time spent up to now is       36.1 secs

     total energy              =     -43.93980764 Ry
     Harris-Foulkes estimate   =     -43.93980780 Ry
     estimated scf accuracy    <       0.00000024 Ry

     iteration # 10     ecut=    40.00 Ry     beta=0.70
     Davidson diagonalization with overlap
     ethr =  3.01E-09,  avg # of iterations =  3.0

     negative rho (up, down):  1.934E-03 0.000E+00

     total cpu time spent up to now is       36.5 secs

     total energy              =     -43.93980776 Ry
     Harris-Foulkes estimate   =     -43.93980791 Ry
     estimated scf accuracy    <       0.00000029 Ry

     iteration # 11     ecut=    40.00 Ry     beta=0.70
     Davidson diagonalization with overlap
     ethr =  3.01E-09,  avg # of iterations =  3.0

     negative rho (up, down):  1.934E-03 0.000E+00

     total cpu time spent up to now is       36.8 secs

     total energy              =     -43.93980781 Ry
     Harris-Foulkes estimate   =     -43.93980780 Ry
     estimated scf accuracy    <       0.00000001 Ry

     iteration # 12     ecut=    40.00 Ry     beta=0.70
     Davidson diagonalization with overlap
     ethr =  1.63E-10,  avg # of iterations =  3.0

     negative rho (up, down):  1.934E-03 0.000E+00

     total cpu time spent up to now is       37.1 secs

     End of self-consistent calculation

          k = 0.0000 0.0000 0.0000 (  4337 PWs)   bands (ev):

   -23.8078 -14.1158  -6.2474  -6.0879

     highest occupied level (ev):    -6.0879

!    total energy              =     -43.93980782 Ry
     Harris-Foulkes estimate   =     -43.93980783 Ry
     estimated scf accuracy    <          4.8E-09 Ry

     The total energy is the sum of the following terms:

     one-electron contribution =     -47.04114370 Ry
     hartree contribution      =      25.52754973 Ry
     xc contribution           =      -8.88949537 Ry
     ewald contribution        =      -3.96243416 Ry
     one-center paw contrib.   =      -9.57428431 Ry

     convergence has been achieved in  12 iterations

     negative rho (up, down):  1.934E-03 0.000E+00

     Forces acting on atoms (Ry/au):

     atom    1 type  2   force =    -0.02451466   -0.03299291   -0.08233592
     atom    2 type  1   force =     0.02638237    0.01562552    0.03901460
     atom    3 type  1   force =    -0.00186771    0.01736739    0.04332132

     Total force =     0.114511     Total SCF correction =     0.000062

     number of scf cycles    =   6
     number of bfgs steps    =   5

     energy   old            =     -43.9327221949 Ry
     energy   new            =     -43.9398078213 Ry

     CASE: energy  _new < energy  _old


     WARNING: bfgs curvature condition failed, Theta= 0.630
     new trust radius        =       0.0914077510 bohr
     new conv_thr            =       0.0000000100 Ry


ATOMIC_POSITIONS (angstrom)
O        0.045189694  -0.041818240  -0.104266506
H       -0.958821018   0.032252115   0.075644570
H        0.913631324   0.029566124   0.078621936



     Writing output data file h2o.save
     Check: negative starting charge=   -0.000167
     NEW-OLD atomic charge density approx. for the potential

     Check: negative/imaginary core charge=   -0.000006    0.000000
     Check: negative starting charge=   -0.000163

     negative rho (up, down):  2.101E-03 0.000E+00

     total cpu time spent up to now is       37.8 secs

     per-process dynamical memory:    60.2 Mb

     Self-consistent Calculation

     iteration #  1     ecut=    40.00 Ry     beta=0.70
     Davidson diagonalization with overlap
     ethr =  1.00E-06,  avg # of iterations =  7.0

     negative rho (up, down):  1.915E-03 0.000E+00

     total cpu time spent up to now is       38.2 secs

     total energy              =     -43.92696602 Ry
     Harris-Foulkes estimate   =     -43.93619909 Ry
     estimated scf accuracy    <       0.00575005 Ry

     iteration #  2     ecut=    40.00 Ry     beta=0.70
     Davidson diagonalization with overlap
     ethr =  7.19E-05,  avg # of iterations =  2.0

     negative rho (up, down):  1.934E-03 0.000E+00

     total cpu time spent up to now is       38.5 secs

     total energy              =     -43.92818457 Ry
     Harris-Foulkes estimate   =     -43.92823840 Ry
     estimated scf accuracy    <       0.00015037 Ry

     iteration #  3     ecut=    40.00 Ry     beta=0.70
     Davidson diagonalization with overlap
     ethr =  1.88E-06,  avg # of iterations =  3.0

     negative rho (up, down):  1.946E-03 0.000E+00

     total cpu time spent up to now is       38.9 secs

     total energy              =     -43.92826538 Ry
     Harris-Foulkes estimate   =     -43.92826580 Ry
     estimated scf accuracy    <       0.00001037 Ry

     iteration #  4     ecut=    40.00 Ry     beta=0.70
     Davidson diagonalization with overlap
     ethr =  1.30E-07,  avg # of iterations =  2.0

     negative rho (up, down):  1.949E-03 0.000E+00

     total cpu time spent up to now is       39.2 secs

     total energy              =     -43.92826672 Ry
     Harris-Foulkes estimate   =     -43.92826685 Ry
     estimated scf accuracy    <       0.00000056 Ry

     iteration #  5     ecut=    40.00 Ry     beta=0.70
     Davidson diagonalization with overlap
     ethr =  7.01E-09,  avg # of iterations =  3.0

     negative rho (up, down):  1.949E-03 0.000E+00

     total cpu time spent up to now is       39.5 secs

     total energy              =     -43.92826691 Ry
     Harris-Foulkes estimate   =     -43.92826702 Ry
     estimated scf accuracy    <       0.00000023 Ry

     iteration #  6     ecut=    40.00 Ry     beta=0.70
     Davidson diagonalization with overlap
     ethr =  2.93E-09,  avg # of iterations =  3.0

     negative rho (up, down):  1.949E-03 0.000E+00

     total cpu time spent up to now is       39.8 secs

     End of self-consistent calculation

          k = 0.0000 0.0000 0.0000 (  4337 PWs)   bands (ev):

   -23.8539 -13.9239  -6.3237  -6.0765

     highest occupied level (ev):    -6.0765

!    total energy              =     -43.92826694 Ry
     Harris-Foulkes estimate   =     -43.92826694 Ry
     estimated scf accuracy    <          8.8E-09 Ry

     The total energy is the sum of the following terms:

     one-electron contribution =     -46.92184801 Ry
     hartree contribution      =      25.46945953 Ry
     xc contribution           =      -8.88253202 Ry
     ewald contribution        =      -4.01789434 Ry
     one-center paw contrib.   =      -9.57545210 Ry

     convergence has been achieved in   6 iterations

     negative rho (up, down):  1.949E-03 0.000E+00

     Forces acting on atoms (Ry/au):

     atom    1 type  2   force =    -0.29044832   -0.04234965   -0.10730355
     atom    2 type  1   force =     0.14646777    0.00842238    0.02171387
     atom    3 type  1   force =     0.14398055    0.03392727    0.08558967

     Total force =     0.385837     Total SCF correction =     0.000078

     number of scf cycles    =   7
     number of bfgs steps    =   6

     energy   old            =     -43.9398078213 Ry
     energy   new            =     -43.9282669394 Ry

     CASE: energy  _new > energy  _old

     new trust radius        =       0.0105772898 bohr
     new conv_thr            =       0.0000000100 Ry


ATOMIC_POSITIONS (angstrom)
O        0.008898704  -0.033352329  -0.083269447
H       -0.939333151   0.026918883   0.062435742
H        0.930434447   0.026433446   0.070833705



     Writing output data file h2o.save
     Check: negative starting charge=   -0.000163
     NEW-OLD atomic charge density approx. for the potential

     Check: negative/imaginary core charge=   -0.000006    0.000000
     Check: negative starting charge=   -0.000167

     negative rho (up, down):  1.846E-03 0.000E+00

     total cpu time spent up to now is       40.5 secs

     per-process dynamical memory:    60.2 Mb

     Self-consistent Calculation

     iteration #  1     ecut=    40.00 Ry     beta=0.70
     Davidson diagonalization with overlap
     ethr =  1.00E-06,  avg # of iterations =  8.0

     negative rho (up, down):  1.873E-03 0.000E+00

     total cpu time spent up to now is       40.9 secs

     total energy              =     -43.93883386 Ry
     Harris-Foulkes estimate   =     -43.94867500 Ry
     estimated scf accuracy    <       0.00473035 Ry

     iteration #  2     ecut=    40.00 Ry     beta=0.70
     Davidson diagonalization with overlap
     ethr =  5.91E-05,  avg # of iterations =  3.0

     negative rho (up, down):  1.874E-03 0.000E+00

     total cpu time spent up to now is       41.3 secs

     total energy              =     -43.93984311 Ry
     Harris-Foulkes estimate   =     -43.94011585 Ry
     estimated scf accuracy    <       0.00046086 Ry

     iteration #  3     ecut=    40.00 Ry     beta=0.70
     Davidson diagonalization with overlap
     ethr =  5.76E-06,  avg # of iterations =  3.0

     negative rho (up, down):  1.912E-03 0.000E+00

     total cpu time spent up to now is       41.6 secs

     total energy              =     -43.93996843 Ry
     Harris-Foulkes estimate   =     -43.94003409 Ry
     estimated scf accuracy    <       0.00013392 Ry

     iteration #  4     ecut=    40.00 Ry     beta=0.70
     Davidson diagonalization with overlap
     ethr =  1.67E-06,  avg # of iterations =  3.0

     negative rho (up, down):  1.938E-03 0.000E+00

     total cpu time spent up to now is       41.9 secs

     total energy              =     -43.93998635 Ry
     Harris-Foulkes estimate   =     -43.93998776 Ry
     estimated scf accuracy    <       0.00000603 Ry

     iteration #  5     ecut=    40.00 Ry     beta=0.70
     Davidson diagonalization with overlap
     ethr =  7.53E-08,  avg # of iterations =  4.0

     negative rho (up, down):  1.936E-03 0.000E+00

     total cpu time spent up to now is       42.3 secs

     total energy              =     -43.93999828 Ry
     Harris-Foulkes estimate   =     -43.94000442 Ry
     estimated scf accuracy    <       0.00001736 Ry

     iteration #  6     ecut=    40.00 Ry     beta=0.70
     Davidson diagonalization with overlap
     ethr =  7.53E-08,  avg # of iterations =  3.0

     negative rho (up, down):  1.933E-03 0.000E+00

     total cpu time spent up to now is       42.6 secs

     total energy              =     -43.93999746 Ry
     Harris-Foulkes estimate   =     -43.93999927 Ry
     estimated scf accuracy    <       0.00000391 Ry

     iteration #  7     ecut=    40.00 Ry     beta=0.70
     Davidson diagonalization with overlap
     ethr =  4.89E-08,  avg # of iterations =  3.0

     negative rho (up, down):  1.934E-03 0.000E+00

     total cpu time spent up to now is       43.0 secs

     total energy              =     -43.93999941 Ry
     Harris-Foulkes estimate   =     -43.93999949 Ry
     estimated scf accuracy    <       0.00000032 Ry

     iteration #  8     ecut=    40.00 Ry     beta=0.70
     Davidson diagonalization with overlap
     ethr =  3.99E-09,  avg # of iterations =  3.0

     negative rho (up, down):  1.934E-03 0.000E+00

     total cpu time spent up to now is       43.3 secs

     total energy              =     -43.93999948 Ry
     Harris-Foulkes estimate   =     -43.93999957 Ry
     estimated scf accuracy    <       0.00000030 Ry

     iteration #  9     ecut=    40.00 Ry     beta=0.70
     Davidson diagonalization with overlap
     ethr =  3.79E-09,  avg # of iterations =  2.0

     negative rho (up, down):  1.934E-03 0.000E+00

     total cpu time spent up to now is       43.7 secs

     total energy              =     -43.93999950 Ry
     Harris-Foulkes estimate   =     -43.93999950 Ry
     estimated scf accuracy    <       0.00000010 Ry

     iteration # 10     ecut=    40.00 Ry     beta=0.70
     Davidson diagonalization with overlap
     ethr =  1.30E-09,  avg # of iterations =  1.0

     negative rho (up, down):  1.934E-03 0.000E+00

     total cpu time spent up to now is       44.0 secs

     total energy              =     -43.93999950 Ry
     Harris-Foulkes estimate   =     -43.93999950 Ry
     estimated scf accuracy    <       0.00000010 Ry

     iteration # 11     ecut=    40.00 Ry     beta=0.70
     Davidson diagonalization with overlap
     ethr =  1.27E-09,  avg # of iterations =  1.0

     negative rho (up, down):  1.933E-03 0.000E+00

     total cpu time spent up to now is       44.3 secs

     total energy              =     -43.93999954 Ry
     Harris-Foulkes estimate   =     -43.93999951 Ry
     estimated scf accuracy    <       0.00000010 Ry

     iteration # 12     ecut=    40.00 Ry     beta=0.70
     Davidson diagonalization with overlap
     ethr =  1.20E-09,  avg # of iterations =  1.0

     negative rho (up, down):  1.933E-03 0.000E+00

     total cpu time spent up to now is       44.6 secs

     total energy              =     -43.93999952 Ry
     Harris-Foulkes estimate   =     -43.93999954 Ry
     estimated scf accuracy    <       0.00000017 Ry

     iteration # 13     ecut=    40.00 Ry     beta=0.70
     Davidson diagonalization with overlap
     ethr =  1.20E-09,  avg # of iterations =  1.0

     negative rho (up, down):  1.934E-03 0.000E+00

     total cpu time spent up to now is       44.9 secs

     total energy              =     -43.93999949 Ry
     Harris-Foulkes estimate   =     -43.93999952 Ry
     estimated scf accuracy    <       0.00000012 Ry

     iteration # 14     ecut=    40.00 Ry     beta=0.70
     Davidson diagonalization with overlap
     ethr =  1.20E-09,  avg # of iterations =  2.0

     negative rho (up, down):  1.934E-03 0.000E+00

     total cpu time spent up to now is       45.2 secs

     total energy              =     -43.93999948 Ry
     Harris-Foulkes estimate   =     -43.93999950 Ry
     estimated scf accuracy    <       0.00000004 Ry

     iteration # 15     ecut=    40.00 Ry     beta=0.70
     Davidson diagonalization with overlap
     ethr =  5.48E-10,  avg # of iterations =  2.0

     negative rho (up, down):  1.935E-03 0.000E+00

     total cpu time spent up to now is       45.5 secs

     End of self-consistent calculation

          k = 0.0000 0.0000 0.0000 (  4337 PWs)   bands (ev):

   -23.8055 -14.0971  -6.2551  -6.0865

     highest occupied level (ev):    -6.0865

!    total energy              =     -43.93999949 Ry
     Harris-Foulkes estimate   =     -43.93999949 Ry
     estimated scf accuracy    <          3.1E-09 Ry

     The total energy is the sum of the following terms:

     one-electron contribution =     -47.02261277 Ry
     hartree contribution      =      25.51848009 Ry
     xc contribution           =      -8.88811674 Ry
     ewald contribution        =      -3.97337117 Ry
     one-center paw contrib.   =      -9.57437890 Ry

     convergence has been achieved in  15 iterations

     negative rho (up, down):  1.935E-03 0.000E+00

     Forces acting on atoms (Ry/au):

     atom    1 type  2   force =    -0.05645203   -0.03362616   -0.08409664
     atom    2 type  1   force =     0.04338720    0.01476857    0.03696643
     atom    3 type  1   force =     0.01306483    0.01885759    0.04713021

     Total force =     0.132682     Total SCF correction =     0.000136

     number of scf cycles    =   8
     number of bfgs steps    =   6

     energy   old            =     -43.9398078213 Ry
     energy   new            =     -43.9399994872 Ry

     CASE: energy  _new < energy  _old


     WARNING: info=  6 for Hessian
     uphill step: resetting bfgs history

     new trust radius        =       0.0317318695 bohr
     new conv_thr            =       0.0000000019 Ry


ATOMIC_POSITIONS (angstrom)
O        0.000016548  -0.038643066  -0.096501202
H       -0.932506613   0.029242568   0.068252036
H        0.932490066   0.029400497   0.078249167



     Writing output data file h2o.save
     Check: negative starting charge=   -0.000167
     NEW-OLD atomic charge density approx. for the potential

     Check: negative/imaginary core charge=   -0.000006    0.000000
     Check: negative starting charge=   -0.000169

     negative rho (up, down):  1.999E-03 0.000E+00

     total cpu time spent up to now is       46.2 secs

     per-process dynamical memory:    60.2 Mb

     Self-consistent Calculation

     iteration #  1     ecut=    40.00 Ry     beta=0.70
     Davidson diagonalization with overlap
     ethr =  1.00E-06,  avg # of iterations =  5.0

     negative rho (up, down):  1.937E-03 0.000E+00

     total cpu time spent up to now is       46.5 secs

     total energy              =     -43.94450348 Ry
     Harris-Foulkes estimate   =     -43.94497961 Ry
     estimated scf accuracy    <       0.00047807 Ry

     iteration #  2     ecut=    40.00 Ry     beta=0.70
     Davidson diagonalization with overlap
     ethr =  5.98E-06,  avg # of iterations =  3.0

     negative rho (up, down):  1.949E-03 0.000E+00

     total cpu time spent up to now is       46.9 secs

     total energy              =     -43.94458501 Ry
     Harris-Foulkes estimate   =     -43.94462239 Ry
     estimated scf accuracy    <       0.00006177 Ry

     iteration #  3     ecut=    40.00 Ry     beta=0.70
     Davidson diagonalization with overlap
     ethr =  7.72E-07,  avg # of iterations =  3.0

     negative rho (up, down):  1.940E-03 0.000E+00

     total cpu time spent up to now is       47.2 secs

     total energy              =     -43.94460317 Ry
     Harris-Foulkes estimate   =     -43.94461368 Ry
     estimated scf accuracy    <       0.00002232 Ry

     iteration #  4     ecut=    40.00 Ry     beta=0.70
     Davidson diagonalization with overlap
     ethr =  2.79E-07,  avg # of iterations =  1.0

     negative rho (up, down):  1.933E-03 0.000E+00

     total cpu time spent up to now is       47.5 secs

     total energy              =     -43.94460282 Ry
     Harris-Foulkes estimate   =     -43.94460486 Ry
     estimated scf accuracy    <       0.00000346 Ry

     iteration #  5     ecut=    40.00 Ry     beta=0.70
     Davidson diagonalization with overlap
     ethr =  4.32E-08,  avg # of iterations =  4.0

     negative rho (up, down):  1.936E-03 0.000E+00

     total cpu time spent up to now is       47.9 secs

     total energy              =     -43.94460813 Ry
     Harris-Foulkes estimate   =     -43.94461075 Ry
     estimated scf accuracy    <       0.00000982 Ry

     iteration #  6     ecut=    40.00 Ry     beta=0.70
     Davidson diagonalization with overlap
     ethr =  4.32E-08,  avg # of iterations =  1.0

     negative rho (up, down):  1.938E-03 0.000E+00

     total cpu time spent up to now is       48.2 secs

     total energy              =     -43.94460657 Ry
     Harris-Foulkes estimate   =     -43.94460830 Ry
     estimated scf accuracy    <       0.00000490 Ry

     iteration #  7     ecut=    40.00 Ry     beta=0.70
     Davidson diagonalization with overlap
     ethr =  4.32E-08,  avg # of iterations =  2.0

     negative rho (up, down):  1.939E-03 0.000E+00

     total cpu time spent up to now is       48.5 secs

     total energy              =     -43.94460788 Ry
     Harris-Foulkes estimate   =     -43.94460789 Ry
     estimated scf accuracy    <          8.5E-09 Ry

     iteration #  8     ecut=    40.00 Ry     beta=0.70
     Davidson diagonalization with overlap
     ethr =  1.07E-10,  avg # of iterations =  5.0

     negative rho (up, down):  1.939E-03 0.000E+00

     total cpu time spent up to now is       48.9 secs

     total energy              =     -43.94460793 Ry
     Harris-Foulkes estimate   =     -43.94460793 Ry
     estimated scf accuracy    <       0.00000003 Ry

     iteration #  9     ecut=    40.00 Ry     beta=0.70
     Davidson diagonalization with overlap
     ethr =  1.07E-10,  avg # of iterations =  1.0

     negative rho (up, down):  1.938E-03 0.000E+00

     total cpu time spent up to now is       49.2 secs

     total energy              =     -43.94460792 Ry
     Harris-Foulkes estimate   =     -43.94460793 Ry
     estimated scf accuracy    <       0.00000002 Ry

     iteration # 10     ecut=    40.00 Ry     beta=0.70
     Davidson diagonalization with overlap
     ethr =  1.07E-10,  avg # of iterations =  3.0

     negative rho (up, down):  1.938E-03 0.000E+00

     total cpu time spent up to now is       49.5 secs

     End of self-consistent calculation

          k = 0.0000 0.0000 0.0000 (  4337 PWs)   bands (ev):

   -23.8116 -14.0467  -6.3064  -6.0910

     highest occupied level (ev):    -6.0910

!    total energy              =     -43.94460792 Ry
     Harris-Foulkes estimate   =     -43.94460792 Ry
     estimated scf accuracy    <          1.1E-09 Ry

     The total energy is the sum of the following terms:

     one-electron contribution =     -46.98602759 Ry
     hartree contribution      =      25.49756413 Ry
     xc contribution           =      -8.88547502 Ry
     ewald contribution        =      -3.99582709 Ry
     one-center paw contrib.   =      -9.57484235 Ry

     convergence has been achieved in  10 iterations

     negative rho (up, down):  1.938E-03 0.000E+00

     Forces acting on atoms (Ry/au):

     atom    1 type  2   force =     0.00437078   -0.03614964   -0.09014624
     atom    2 type  1   force =     0.01709629    0.01823609    0.04552818
     atom    3 type  1   force =    -0.02146707    0.01791355    0.04461806

     Total force =     0.122157     Total SCF correction =     0.000020

     number of scf cycles    =   9
     number of bfgs steps    =   7

     energy   old            =     -43.9399994872 Ry
     energy   new            =     -43.9446079229 Ry

     CASE: energy  _new < energy  _old

     new trust radius        =       0.0475978043 bohr
     new conv_thr            =       0.0000000100 Ry


ATOMIC_POSITIONS (angstrom)
O       -0.004723933  -0.047842248  -0.119464690
H       -0.925497991   0.033670964   0.079317168
H        0.930221925   0.034171284   0.090147522



     Writing output data file h2o.save
     Check: negative starting charge=   -0.000169
     NEW-OLD atomic charge density approx. for the potential

     Check: negative/imaginary core charge=   -0.000006    0.000000
     Check: negative starting charge=   -0.000168

     negative rho (up, down):  2.047E-03 0.000E+00

     total cpu time spent up to now is       50.2 secs

     per-process dynamical memory:    60.2 Mb

     Self-consistent Calculation

     iteration #  1     ecut=    40.00 Ry     beta=0.70
     Davidson diagonalization with overlap
     ethr =  1.00E-06,  avg # of iterations =  6.0

     negative rho (up, down):  1.935E-03 0.000E+00

     total cpu time spent up to now is       50.6 secs

     total energy              =     -43.95168619 Ry
     Harris-Foulkes estimate   =     -43.95277537 Ry
     estimated scf accuracy    <       0.00078899 Ry

     iteration #  2     ecut=    40.00 Ry     beta=0.70
     Davidson diagonalization with overlap
     ethr =  9.86E-06,  avg # of iterations =  3.0

     negative rho (up, down):  1.957E-03 0.000E+00

     total cpu time spent up to now is       51.0 secs

     total energy              =     -43.95180996 Ry
     Harris-Foulkes estimate   =     -43.95193704 Ry
     estimated scf accuracy    <       0.00021620 Ry

     iteration #  3     ecut=    40.00 Ry     beta=0.70
     Davidson diagonalization with overlap
     ethr =  2.70E-06,  avg # of iterations =  3.0

     negative rho (up, down):  1.943E-03 0.000E+00

     total cpu time spent up to now is       51.3 secs

     total energy              =     -43.95186957 Ry
     Harris-Foulkes estimate   =     -43.95187773 Ry
     estimated scf accuracy    <       0.00001939 Ry

     iteration #  4     ecut=    40.00 Ry     beta=0.70
     Davidson diagonalization with overlap
     ethr =  2.42E-07,  avg # of iterations =  3.0

     negative rho (up, down):  1.941E-03 0.000E+00

     total cpu time spent up to now is       51.6 secs

     total energy              =     -43.95187678 Ry
     Harris-Foulkes estimate   =     -43.95187919 Ry
     estimated scf accuracy    <       0.00000534 Ry

     iteration #  5     ecut=    40.00 Ry     beta=0.70
     Davidson diagonalization with overlap
     ethr =  6.67E-08,  avg # of iterations =  3.0

     negative rho (up, down):  1.944E-03 0.000E+00

     total cpu time spent up to now is       51.9 secs

     total energy              =     -43.95187946 Ry
     Harris-Foulkes estimate   =     -43.95187981 Ry
     estimated scf accuracy    <       0.00000074 Ry

     iteration #  6     ecut=    40.00 Ry     beta=0.70
     Davidson diagonalization with overlap
     ethr =  9.31E-09,  avg # of iterations =  3.0

     negative rho (up, down):  1.944E-03 0.000E+00

     total cpu time spent up to now is       52.3 secs

     End of self-consistent calculation

          k = 0.0000 0.0000 0.0000 (  4337 PWs)   bands (ev):

   -23.8277 -13.9394  -6.4093  -6.0988

     highest occupied level (ev):    -6.0988

!    total energy              =     -43.95187974 Ry
     Harris-Foulkes estimate   =     -43.95187974 Ry
     estimated scf accuracy    <          3.8E-09 Ry

     The total energy is the sum of the following terms:

     one-electron contribution =     -46.91502316 Ry
     hartree contribution      =      25.45813187 Ry
     xc contribution           =      -8.88066195 Ry
     ewald contribution        =      -4.03856142 Ry
     one-center paw contrib.   =      -9.57576507 Ry

     convergence has been achieved in   6 iterations

[...]
     Harris-Foulkes estimate   =     -44.02431997 Ry
     estimated scf accuracy    <       0.00000003 Ry

     iteration #  5     ecut=    40.00 Ry     beta=0.70
     Davidson diagonalization with overlap
     ethr =  4.31E-10,  avg # of iterations =  3.0

     negative rho (up, down):  2.101E-03 0.000E+00

     total cpu time spent up to now is      203.4 secs

     total energy              =     -44.02431997 Ry
     Harris-Foulkes estimate   =     -44.02431997 Ry
     estimated scf accuracy    <          6.3E-09 Ry

     iteration #  6     ecut=    40.00 Ry     beta=0.70
     Davidson diagonalization with overlap
     ethr =  7.85E-11,  avg # of iterations =  3.0

     negative rho (up, down):  2.101E-03 0.000E+00

     total cpu time spent up to now is      203.8 secs

     total energy              =     -44.02431997 Ry
     Harris-Foulkes estimate   =     -44.02431997 Ry
     estimated scf accuracy    <          3.1E-10 Ry

     iteration #  7     ecut=    40.00 Ry     beta=0.70
     Davidson diagonalization with overlap
     ethr =  3.90E-12,  avg # of iterations =  3.0

     negative rho (up, down):  2.102E-03 0.000E+00

     total cpu time spent up to now is      204.1 secs

     End of self-consistent calculation

          k = 0.0000 0.0000 0.0000 (  4337 PWs)   bands (ev):

   -24.3002 -12.1455  -8.3095  -6.2539

     highest occupied level (ev):    -6.2539

!    total energy              =     -44.02431997 Ry
     Harris-Foulkes estimate   =     -44.02431997 Ry
     estimated scf accuracy    <          4.1E-11 Ry

     The total energy is the sum of the following terms:

     one-electron contribution =     -46.60594578 Ry
     hartree contribution      =      25.24207944 Ry
     xc contribution           =      -8.86066312 Ry
     ewald contribution        =      -4.21413662 Ry
     one-center paw contrib.   =      -9.58565388 Ry

     convergence has been achieved in   7 iterations

     negative rho (up, down):  2.102E-03 0.000E+00

     Forces acting on atoms (Ry/au):

     atom    1 type  2   force =    -0.00169483   -0.00173161   -0.00111212
     atom    2 type  1   force =     0.00550980   -0.00025940   -0.00101337
     atom    3 type  1   force =    -0.00381497    0.00199101    0.00212549

     Total force =     0.007848     Total SCF correction =     0.000021

     number of scf cycles    =  48
     number of bfgs steps    =  45

     energy   old            =     -44.0242979868 Ry
     energy   new            =     -44.0243199684 Ry

     CASE: energy  _new < energy  _old

     new trust radius        =       0.0287664144 bohr
     new conv_thr            =       0.0000000002 Ry


ATOMIC_POSITIONS (angstrom)
O       -0.176555823  -0.271928147  -0.199297913
H       -0.590769045   0.327388398   0.447008875
H        0.767324868  -0.035460251  -0.197710962



     Writing output data file h2o.save
     Check: negative starting charge=   -0.000160
     NEW-OLD atomic charge density approx. for the potential

     Check: negative/imaginary core charge=   -0.000006    0.000000
     Check: negative starting charge=   -0.000157

     negative rho (up, down):  2.077E-03 0.000E+00

     total cpu time spent up to now is      204.7 secs

     per-process dynamical memory:    60.2 Mb

     Self-consistent Calculation

     iteration #  1     ecut=    40.00 Ry     beta=0.70
     Davidson diagonalization with overlap
     ethr =  1.00E-06,  avg # of iterations =  5.0

     negative rho (up, down):  2.100E-03 0.000E+00

     total cpu time spent up to now is      205.1 secs

     total energy              =     -44.02434275 Ry
     Harris-Foulkes estimate   =     -44.02472271 Ry
     estimated scf accuracy    <       0.00009729 Ry

     iteration #  2     ecut=    40.00 Ry     beta=0.70
     Davidson diagonalization with overlap
     ethr =  1.22E-06,  avg # of iterations =  1.0

     negative rho (up, down):  2.118E-03 0.000E+00

     total cpu time spent up to now is      205.4 secs

     total energy              =     -44.02434841 Ry
     Harris-Foulkes estimate   =     -44.02434790 Ry
     estimated scf accuracy    <       0.00000547 Ry

     iteration #  3     ecut=    40.00 Ry     beta=0.70
     Davidson diagonalization with overlap
     ethr =  6.84E-08,  avg # of iterations =  4.0

     negative rho (up, down):  2.118E-03 0.000E+00

     total cpu time spent up to now is      205.8 secs

     total energy              =     -44.02435237 Ry
     Harris-Foulkes estimate   =     -44.02435352 Ry
     estimated scf accuracy    <       0.00000230 Ry

     iteration #  4     ecut=    40.00 Ry     beta=0.70
     Davidson diagonalization with overlap
     ethr =  2.87E-08,  avg # of iterations =  1.0

     negative rho (up, down):  2.121E-03 0.000E+00

     total cpu time spent up to now is      206.1 secs

     total energy              =     -44.02435240 Ry
     Harris-Foulkes estimate   =     -44.02435253 Ry
     estimated scf accuracy    <       0.00000035 Ry

     iteration #  5     ecut=    40.00 Ry     beta=0.70
     Davidson diagonalization with overlap
     ethr =  4.41E-09,  avg # of iterations =  3.0

     negative rho (up, down):  2.121E-03 0.000E+00

     total cpu time spent up to now is      206.4 secs

     total energy              =     -44.02435253 Ry
     Harris-Foulkes estimate   =     -44.02435254 Ry
     estimated scf accuracy    <       0.00000003 Ry

     iteration #  6     ecut=    40.00 Ry     beta=0.70
     Davidson diagonalization with overlap
     ethr =  4.31E-10,  avg # of iterations =  1.0

     negative rho (up, down):  2.122E-03 0.000E+00

     total cpu time spent up to now is      206.8 secs

     total energy              =     -44.02435252 Ry
     Harris-Foulkes estimate   =     -44.02435253 Ry
     estimated scf accuracy    <       0.00000001 Ry

     iteration #  7     ecut=    40.00 Ry     beta=0.70
     Davidson diagonalization with overlap
     ethr =  1.52E-10,  avg # of iterations =  3.0

     negative rho (up, down):  2.122E-03 0.000E+00

     total cpu time spent up to now is      207.1 secs

     total energy              =     -44.02435253 Ry
     Harris-Foulkes estimate   =     -44.02435254 Ry
     estimated scf accuracy    <       0.00000002 Ry

     iteration #  8     ecut=    40.00 Ry     beta=0.70
     Davidson diagonalization with overlap
     ethr =  1.52E-10,  avg # of iterations =  1.0

     negative rho (up, down):  2.122E-03 0.000E+00

     total cpu time spent up to now is      207.4 secs

     total energy              =     -44.02435253 Ry
     Harris-Foulkes estimate   =     -44.02435253 Ry
     estimated scf accuracy    <       0.00000001 Ry

     iteration #  9     ecut=    40.00 Ry     beta=0.70
     Davidson diagonalization with overlap
     ethr =  1.52E-10,  avg # of iterations =  3.0

     negative rho (up, down):  2.122E-03 0.000E+00

     total cpu time spent up to now is      207.8 secs

     total energy              =     -44.02435253 Ry
     Harris-Foulkes estimate   =     -44.02435253 Ry
     estimated scf accuracy    <          8.1E-09 Ry

     iteration # 10     ecut=    40.00 Ry     beta=0.70
     Davidson diagonalization with overlap
     ethr =  1.02E-10,  avg # of iterations =  1.0

     negative rho (up, down):  2.122E-03 0.000E+00

     total cpu time spent up to now is      208.1 secs

     total energy              =     -44.02435253 Ry
     Harris-Foulkes estimate   =     -44.02435253 Ry
     estimated scf accuracy    <          4.8E-09 Ry

     iteration # 11     ecut=    40.00 Ry     beta=0.70
     Davidson diagonalization with overlap
     ethr =  6.03E-11,  avg # of iterations =  2.0

     negative rho (up, down):  2.122E-03 0.000E+00

     total cpu time spent up to now is      208.4 secs

     total energy              =     -44.02435253 Ry
     Harris-Foulkes estimate   =     -44.02435253 Ry
     estimated scf accuracy    <          4.1E-10 Ry

     iteration # 12     ecut=    40.00 Ry     beta=0.70
     Davidson diagonalization with overlap
     ethr =  5.15E-12,  avg # of iterations =  2.0

     negative rho (up, down):  2.122E-03 0.000E+00

     total cpu time spent up to now is      208.7 secs

     total energy              =     -44.02435253 Ry
     Harris-Foulkes estimate   =     -44.02435253 Ry
     estimated scf accuracy    <          2.5E-10 Ry

     iteration # 13     ecut=    40.00 Ry     beta=0.70
     Davidson diagonalization with overlap
     ethr =  3.07E-12,  avg # of iterations =  3.0

     negative rho (up, down):  2.122E-03 0.000E+00

     total cpu time spent up to now is      209.1 secs

     total energy              =     -44.02435253 Ry
     Harris-Foulkes estimate   =     -44.02435253 Ry
     estimated scf accuracy    <          3.7E-10 Ry

     iteration # 14     ecut=    40.00 Ry     beta=0.70
     Davidson diagonalization with overlap
     ethr =  3.07E-12,  avg # of iterations =  1.0

     negative rho (up, down):  2.122E-03 0.000E+00

     total cpu time spent up to now is      209.4 secs

     total energy              =     -44.02435253 Ry
     Harris-Foulkes estimate   =     -44.02435253 Ry
     estimated scf accuracy    <          2.8E-10 Ry

     iteration # 15     ecut=    40.00 Ry     beta=0.70
     Davidson diagonalization with overlap
     ethr =  3.07E-12,  avg # of iterations =  3.0

     negative rho (up, down):  2.122E-03 0.000E+00

     total cpu time spent up to now is      209.8 secs

     End of self-consistent calculation

          k = 0.0000 0.0000 0.0000 (  4337 PWs)   bands (ev):

   -24.2940 -12.1391  -8.3088  -6.2523

     highest occupied level (ev):    -6.2523

!    total energy              =     -44.02435253 Ry
     Harris-Foulkes estimate   =     -44.02435253 Ry
     estimated scf accuracy    <          1.6E-12 Ry

     The total energy is the sum of the following terms:

     one-electron contribution =     -46.59475062 Ry
     hartree contribution      =      25.23700042 Ry
     xc contribution           =      -8.85977063 Ry
     ewald contribution        =      -4.22117321 Ry
     one-center paw contrib.   =      -9.58565849 Ry

     convergence has been achieved in  15 iterations

     negative rho (up, down):  2.122E-03 0.000E+00

     Forces acting on atoms (Ry/au):

     atom    1 type  2   force =    -0.00126956   -0.00094369   -0.00038931
     atom    2 type  1   force =     0.00588238   -0.00088402   -0.00174209
     atom    3 type  1   force =    -0.00461281    0.00182771    0.00213139

     Total force =     0.008381     Total SCF correction =     0.000001

     number of scf cycles    =  49
     number of bfgs steps    =  46

     energy   old            =     -44.0243199684 Ry
     energy   new            =     -44.0243525323 Ry

     CASE: energy  _new < energy  _old

     new trust radius        =       0.0431496216 bohr
     new conv_thr            =       0.0000000003 Ry


ATOMIC_POSITIONS (angstrom)
O       -0.182593681  -0.279050746  -0.186169185
H       -0.578567158   0.339271814   0.455344574
H        0.761160839  -0.040221068  -0.219175389



     Writing output data file h2o.save
     Check: negative starting charge=   -0.000157
     NEW-OLD atomic charge density approx. for the potential

     Check: negative/imaginary core charge=   -0.000006    0.000000
     Check: negative starting charge=   -0.000153

     negative rho (up, down):  2.086E-03 0.000E+00

     total cpu time spent up to now is      210.4 secs

     per-process dynamical memory:    60.2 Mb

     Self-consistent Calculation

     iteration #  1     ecut=    40.00 Ry     beta=0.70
     Davidson diagonalization with overlap
     ethr =  1.00E-06,  avg # of iterations =  5.0

     negative rho (up, down):  2.107E-03 0.000E+00

     total cpu time spent up to now is      210.9 secs

     total energy              =     -44.02437893 Ry
     Harris-Foulkes estimate   =     -44.02515022 Ry
     estimated scf accuracy    <       0.00021474 Ry

     iteration #  2     ecut=    40.00 Ry     beta=0.70
     Davidson diagonalization with overlap
     ethr =  2.68E-06,  avg # of iterations =  1.0

     negative rho (up, down):  2.139E-03 0.000E+00

     total cpu time spent up to now is      211.2 secs

     total energy              =     -44.02439206 Ry
     Harris-Foulkes estimate   =     -44.02439071 Ry
     estimated scf accuracy    <       0.00001223 Ry

     iteration #  3     ecut=    40.00 Ry     beta=0.70
     Davidson diagonalization with overlap
     ethr =  1.53E-07,  avg # of iterations =  4.0

     negative rho (up, down):  2.138E-03 0.000E+00

     total cpu time spent up to now is      211.6 secs

     total energy              =     -44.02440144 Ry
     Harris-Foulkes estimate   =     -44.02440447 Ry
     estimated scf accuracy    <       0.00000628 Ry

     iteration #  4     ecut=    40.00 Ry     beta=0.70
     Davidson diagonalization with overlap
     ethr =  7.85E-08,  avg # of iterations =  1.0

     negative rho (up, down):  2.139E-03 0.000E+00

     total cpu time spent up to now is      211.9 secs

     total energy              =     -44.02440102 Ry
     Harris-Foulkes estimate   =     -44.02440177 Ry
     estimated scf accuracy    <       0.00000135 Ry

     iteration #  5     ecut=    40.00 Ry     beta=0.70
     Davidson diagonalization with overlap
     ethr =  1.69E-08,  avg # of iterations =  3.0

     negative rho (up, down):  2.141E-03 0.000E+00

     total cpu time spent up to now is      212.2 secs

     total energy              =     -44.02440185 Ry
     Harris-Foulkes estimate   =     -44.02440213 Ry
     estimated scf accuracy    <       0.00000052 Ry

     iteration #  6     ecut=    40.00 Ry     beta=0.70
     Davidson diagonalization with overlap
     ethr =  6.51E-09,  avg # of iterations =  2.0

     negative rho (up, down):  2.140E-03 0.000E+00

     total cpu time spent up to now is      212.6 secs

     total energy              =     -44.02440189 Ry
     Harris-Foulkes estimate   =     -44.02440191 Ry
     estimated scf accuracy    <       0.00000004 Ry

     iteration #  7     ecut=    40.00 Ry     beta=0.70
     Davidson diagonalization with overlap
     ethr =  4.43E-10,  avg # of iterations =  3.0

     negative rho (up, down):  2.141E-03 0.000E+00

     total cpu time spent up to now is      212.9 secs

     total energy              =     -44.02440190 Ry
     Harris-Foulkes estimate   =     -44.02440192 Ry
     estimated scf accuracy    <       0.00000003 Ry

     iteration #  8     ecut=    40.00 Ry     beta=0.70
     Davidson diagonalization with overlap
     ethr =  3.76E-10,  avg # of iterations =  3.0

     negative rho (up, down):  2.141E-03 0.000E+00

     total cpu time spent up to now is      213.3 secs

     total energy              =     -44.02440191 Ry
     Harris-Foulkes estimate   =     -44.02440191 Ry
     estimated scf accuracy    <          5.9E-10 Ry

     iteration #  9     ecut=    40.00 Ry     beta=0.70
     Davidson diagonalization with overlap
     ethr =  7.33E-12,  avg # of iterations =  3.0

     negative rho (up, down):  2.141E-03 0.000E+00

     total cpu time spent up to now is      213.6 secs

     total energy              =     -44.02440191 Ry
     Harris-Foulkes estimate   =     -44.02440191 Ry
     estimated scf accuracy    <          8.9E-10 Ry

     iteration # 10     ecut=    40.00 Ry     beta=0.70
     Davidson diagonalization with overlap
     ethr =  7.33E-12,  avg # of iterations =  3.0

     negative rho (up, down):  2.141E-03 0.000E+00

     total cpu time spent up to now is      213.9 secs

     End of self-consistent calculation

          k = 0.0000 0.0000 0.0000 (  4337 PWs)   bands (ev):

   -24.2825 -12.1230  -8.3107  -6.2496

     highest occupied level (ev):    -6.2496

!    total energy              =     -44.02440191 Ry
     Harris-Foulkes estimate   =     -44.02440191 Ry
     estimated scf accuracy    <          1.1E-11 Ry

     The total energy is the sum of the following terms:

     one-electron contribution =     -46.57138206 Ry
     hartree contribution      =      25.22619757 Ry
     xc contribution           =      -8.85788764 Ry
     ewald contribution        =      -4.23564845 Ry
     one-center paw contrib.   =      -9.58568131 Ry

     convergence has been achieved in  10 iterations

     negative rho (up, down):  2.141E-03 0.000E+00

     Forces acting on atoms (Ry/au):

     atom    1 type  2   force =    -0.00023017    0.00094721    0.00110127
     atom    2 type  1   force =     0.00643615   -0.00227857   -0.00321879
     atom    3 type  1   force =    -0.00620598    0.00133136    0.00211752

     Total force =     0.010194     Total SCF correction =     0.000009

     number of scf cycles    =  50
     number of bfgs steps    =  47

     energy   old            =     -44.0243525323 Ry
     energy   new            =     -44.0244019055 Ry

     CASE: energy  _new < energy  _old

     new trust radius        =       0.0647244324 bohr
     new conv_thr            =       0.0000000005 Ry


ATOMIC_POSITIONS (angstrom)
O       -0.191563687  -0.288490424  -0.168393725
H       -0.558125956   0.355480572   0.469123849
H        0.749689643  -0.046990147  -0.250730124



     Writing output data file h2o.save
     Check: negative starting charge=   -0.000153
     NEW-OLD atomic charge density approx. for the potential

     Check: negative/imaginary core charge=   -0.000006    0.000000
     Check: negative starting charge=   -0.000152

     negative rho (up, down):  2.117E-03 0.000E+00

     Writing output data file h2o.save

     init_run     :      0.63s CPU      0.66s WALL (       1 calls)
     electrons    :    179.84s CPU    181.86s WALL (      50 calls)
     update_pot   :     12.58s CPU     13.38s WALL (      50 calls)
     forces       :     10.19s CPU     10.25s WALL (      50 calls)

     Called by init_run:
     wfcinit      :      0.04s CPU      0.04s WALL (       1 calls)
     potinit      :      0.20s CPU      0.20s WALL (       1 calls)

     Called by electrons:
     c_bands      :     44.30s CPU     44.82s WALL (     543 calls)
     sum_band     :     31.26s CPU     31.52s WALL (     543 calls)
     v_of_rho     :     54.04s CPU     54.21s WALL (     581 calls)
     newd         :     15.03s CPU     15.08s WALL (     581 calls)
     PAW_pot      :     41.18s CPU     41.23s WALL (     631 calls)
     mix_rho      :      5.51s CPU      5.52s WALL (     543 calls)

     Called by c_bands:
     init_us_2    :      1.60s CPU      1.67s WALL (    1137 calls)
     cegterg      :     42.96s CPU     43.30s WALL (     543 calls)

     Called by sum_band:
     sum_band:bec :      0.00s CPU      0.00s WALL (     593 calls)
     addusdens    :     20.75s CPU     20.86s WALL (     543 calls)

     Called by *egterg:
     h_psi        :     38.02s CPU     38.30s WALL (    1993 calls)
     s_psi        :      1.10s CPU      1.11s WALL (    1993 calls)
     g_psi        :      0.22s CPU      0.22s WALL (    1449 calls)
     cdiaghg      :      0.16s CPU      0.16s WALL (    1930 calls)

     Called by h_psi:
     h_psi:pot    :     37.85s CPU     38.12s WALL (    1993 calls)
     h_psi:calbec :      1.23s CPU      1.25s WALL (    1993 calls)
     vloc_psi     :     35.51s CPU     35.75s WALL (    1993 calls)
     add_vuspsi   :      1.10s CPU      1.11s WALL (    1993 calls)

     General routines
     calbec       :      1.82s CPU      1.84s WALL (    2786 calls)
     fft          :     22.98s CPU     23.06s WALL (    8142 calls)
     fftw         :     36.98s CPU     37.26s WALL (   15812 calls)
     davcio       :      0.02s CPU      0.09s WALL (      51 calls)

     Parallel routines
     fft_scatter  :      5.03s CPU      5.06s WALL (   23954 calls)

     PWSCF        :  3m30.50s CPU     3m34.68s WALL


   This run was terminated on:  14:40:41  20Nov2019            

=------------------------------------------------------------------------------=
   JOB DONE.
=------------------------------------------------------------------------------=
